
                                 *****************
                                 * O   R   C   A *
                                 *****************

                                            #,                                       
                                            ###                                      
                                            ####                                     
                                            #####                                    
                                            ######                                   
                                           ########,                                 
                                     ,,################,,,,,                         
                               ,,#################################,,                 
                          ,,##########################################,,             
                       ,#########################################, ''#####,          
                    ,#############################################,,   '####,        
                  ,##################################################,,,,####,       
                ,###########''''           ''''###############################       
              ,#####''   ,,,,##########,,,,          '''####'''          '####       
            ,##' ,,,,###########################,,,                        '##       
           ' ,,###''''                  '''############,,,                           
         ,,##''                                '''############,,,,        ,,,,,,###''
      ,#''                                            '''#######################'''  
     '                                                          ''''####''''         
             ,#######,   #######,   ,#######,      ##                                
            ,#'     '#,  ##    ##  ,#'     '#,    #''#        ######   ,####,        
            ##       ##  ##   ,#'  ##            #'  '#       #        #'  '#        
            ##       ##  #######   ##           ,######,      #####,   #    #        
            '#,     ,#'  ##    ##  '#,     ,#' ,#      #,         ##   #,  ,#        
             '#######'   ##     ##  '#######'  #'      '#     #####' # '####'        



                  #######################################################
                  #                        -***-                        #
                  #          Department of theory and spectroscopy      #
                  #    Directorship and core code : Frank Neese         #
                  #        Max Planck Institute fuer Kohlenforschung    #
                  #                Kaiser Wilhelm Platz 1               #
                  #                 D-45470 Muelheim/Ruhr               #
                  #                      Germany                        #
                  #                                                     #
                  #                  All rights reserved                #
                  #                        -***-                        #
                  #######################################################


                         Program Version 5.0.4 -  RELEASE  -


 With contributions from (in alphabetic order):
   Daniel Aravena         : Magnetic Suceptibility
   Michael Atanasov       : Ab Initio Ligand Field Theory (pilot matlab implementation)
   Alexander A. Auer      : GIAO ZORA, VPT2 properties, NMR spectrum
   Ute Becker             : Parallelization
   Giovanni Bistoni       : ED, misc. LED, open-shell LED, HFLD
   Martin Brehm           : Molecular dynamics
   Dmytro Bykov           : SCF Hessian
   Vijay G. Chilkuri      : MRCI spin determinant printing, contributions to CSF-ICE
   Dipayan Datta          : RHF DLPNO-CCSD density
   Achintya Kumar Dutta   : EOM-CC, STEOM-CC
   Dmitry Ganyushin       : Spin-Orbit,Spin-Spin,Magnetic field MRCI
   Miquel Garcia          : C-PCM and meta-GGA Hessian, CC/C-PCM, Gaussian charge scheme
   Yang Guo               : DLPNO-NEVPT2, F12-NEVPT2, CIM, IAO-localization
   Andreas Hansen         : Spin unrestricted coupled pair/coupled cluster methods
   Benjamin Helmich-Paris : MC-RPA, TRAH-SCF, COSX integrals
   Lee Huntington         : MR-EOM, pCC
   Robert Izsak           : Overlap fitted RIJCOSX, COSX-SCS-MP3, EOM
   Marcus Kettner         : VPT2
   Christian Kollmar      : KDIIS, OOCD, Brueckner-CCSD(T), CCSD density, CASPT2, CASPT2-K
   Simone Kossmann        : Meta GGA functionals, TD-DFT gradient, OOMP2, MP2 Hessian
   Martin Krupicka        : Initial AUTO-CI
   Lucas Lang             : DCDCAS
   Marvin Lechner         : AUTO-CI (C++ implementation), FIC-MRCC
   Dagmar Lenk            : GEPOL surface, SMD
   Dimitrios Liakos       : Extrapolation schemes; Compound Job, initial MDCI parallelization
   Dimitrios Manganas     : Further ROCIS development; embedding schemes
   Dimitrios Pantazis     : SARC Basis sets
   Anastasios Papadopoulos: AUTO-CI, single reference methods and gradients
   Taras Petrenko         : DFT Hessian,TD-DFT gradient, ASA, ECA, R-Raman, ABS, FL, XAS/XES, NRVS
   Peter Pinski           : DLPNO-MP2, DLPNO-MP2 Gradient
   Christoph Reimann      : Effective Core Potentials
   Marius Retegan         : Local ZFS, SOC
   Christoph Riplinger    : Optimizer, TS searches, QM/MM, DLPNO-CCSD(T), (RO)-DLPNO pert. Triples
   Tobias Risthaus        : Range-separated hybrids, TD-DFT gradient, RPA, STAB
   Michael Roemelt        : Original ROCIS implementation
   Masaaki Saitow         : Open-shell DLPNO-CCSD energy and density
   Barbara Sandhoefer     : DKH picture change effects
   Avijit Sen             : IP-ROCIS
   Kantharuban Sivalingam : CASSCF convergence, NEVPT2, FIC-MRCI
   Bernardo de Souza      : ESD, SOC TD-DFT
   Georgi Stoychev        : AutoAux, RI-MP2 NMR, DLPNO-MP2 response
   Willem Van den Heuvel  : Paramagnetic NMR
   Boris Wezisla          : Elementary symmetry handling
   Frank Wennmohs         : Technical directorship


 We gratefully acknowledge several colleagues who have allowed us to
 interface, adapt or use parts of their codes:
   Stefan Grimme, W. Hujo, H. Kruse, P. Pracht,  : VdW corrections, initial TS optimization,
                  C. Bannwarth, S. Ehlert          DFT functionals, gCP, sTDA/sTD-DF
   Ed Valeev, F. Pavosevic, A. Kumar             : LibInt (2-el integral package), F12 methods
   Garnet Chan, S. Sharma, J. Yang, R. Olivares  : DMRG
   Ulf Ekstrom                                   : XCFun DFT Library
   Mihaly Kallay                                 : mrcc  (arbitrary order and MRCC methods)
   Jiri Pittner, Ondrej Demel                    : Mk-CCSD
   Frank Weinhold                                : gennbo (NPA and NBO analysis)
   Christopher J. Cramer and Donald G. Truhlar   : smd solvation model
   Lars Goerigk                                  : TD-DFT with DH, B97 family of functionals
   V. Asgeirsson, H. Jonsson                     : NEB implementation
   FAccTs GmbH                                   : IRC, NEB, NEB-TS, DLPNO-Multilevel, CI-OPT
                                                   MM, QMMM, 2- and 3-layer-ONIOM, Crystal-QMMM,
                                                   LR-CPCM, SF, NACMEs, symmetry and pop. for TD-DFT,
                                                   nearIR, NL-DFT gradient (VV10), updates on ESD,
                                                   ML-optimized integration grids
   S Lehtola, MJT Oliveira, MAL Marques          : LibXC Library
   Liviu Ungur et al                             : ANISO software


 Your calculation uses the libint2 library for the computation of 2-el integrals
 For citations please refer to: http://libint.valeyev.net

 Your ORCA version has been built with support for libXC version: 5.1.0
 For citations please refer to: https://tddft.org/programs/libxc/

 This ORCA versions uses:
   CBLAS   interface :  Fast vector & matrix operations
   LAPACKE interface :  Fast linear algebra routines
   SCALAPACK package :  Parallel linear algebra routines
   Shared memory     :  Shared parallel matrices


Your calculation utilizes the atom-pairwise dispersion correction
with the Becke-Johnson damping scheme (D3BJ)
Cite in your paper:
S.Grimme, S.Ehrlich, L.Goerigk, J Comput Chem, (2011), 32, 1456–1465 
S.Grimme, J.Antony, S.Ehrlich and H.Krieg, J.Chem.Phys., 132, (2010), 154104 
   

================================================================================

----- Orbital basis set information -----
Your calculation utilizes the basis: def2-SVP
   F. Weigend and R. Ahlrichs, Phys. Chem. Chem. Phys. 7, 3297 (2005).

----- AuxJ basis set information -----
Your calculation utilizes the auxiliary basis: def2/J
   F. Weigend, Phys. Chem. Chem. Phys. 8, 1057 (2006).

================================================================================
                                        WARNINGS
                       Please study these warnings very carefully!
================================================================================


WARNING: Geometry Optimization
  ===> : Switching off AutoStart
         For restart on a previous wavefunction, please use MOREAD

INFO   : the flag for use of the SHARK integral package has been found!

================================================================================
                                       INPUT FILE
================================================================================
NAME = input.inp
|  1> %pal nprocs 1 END
|  2> %MaxCore 3000
|  3> 
|  4> !BP86 D3BJ DEF2-SVP TightSCF
|  5> !OPT
|  6> 
|  7> * xyz 0 1 
|  8> C         -5.39620        2.23750       -0.00500
|  9> C         -4.32710        3.33400       -0.00120
| 10> H         -6.39390        2.72630        0.00270
| 11> H         -5.36040        1.61530        0.90930
| 12> H         -5.36780        1.62940       -0.92910
| 13> C         -2.80350        3.09610       -0.00900
| 14> H         -4.53830        3.95120        0.90000
| 15> H         -4.54560        3.96370       -0.89190
| 16> O         -2.19120        4.15040       -0.00530
| 17> N         -2.10530        1.88270       -0.01930
| 18> C         -2.87420        0.62430       -0.02230
| 19> C         -2.31470       -0.81200       -0.03170
| 20> H         -3.49740        0.64060       -0.93480
| 21> H         -3.48630        0.63240        0.89800
| 22> N         -3.28290       -1.77070       -0.02320
| 23> C         -3.00620       -3.09690       -0.02850
| 24> C         -4.04910       -4.03070       -0.01820
| 25> C         -3.76290       -5.39900       -0.02350
| 26> C         -2.43570       -5.83770       -0.03920
| 27> C         -1.38900       -4.91010       -0.04960
| 28> C         -1.67050       -3.53060       -0.04420
| 29> C         -0.66670       -2.55290       -0.05370
| 30> N         -1.00270       -1.21800       -0.04720
| 31> O          0.51040       -2.87730       -0.06780
| 32> C         -0.63110        1.81500       -0.02480
| 33> C          0.20250        3.11900       -0.01290
| 34> H         -0.33330        1.29520       -0.96030
| 35> H         -0.32790        1.27610        0.89810
| 36> C          1.70980        2.93130       -0.01570
| 37> H         -0.04200        3.69260        0.90790
| 38> H         -0.04310        3.71160       -0.92120
| 39> C          2.34380        1.66980       -0.03040
| 40> C          3.73920        1.57750       -0.03170
| 41> C          4.52110        2.73500       -0.01850
| 42> Cl         6.27100        2.61390       -0.02000
| 43> C          3.90640        3.98910       -0.00390
| 44> C          2.51210        4.08640       -0.00270
| 45> H         -0.19480       -0.58070       -0.05570
| 46> H         -5.08000       -3.69890       -0.00600
| 47> H         -4.57020       -6.11990       -0.01530
| 48> H         -2.21790       -6.89790       -0.04330
| 49> H         -0.36800       -5.27140       -0.06170
| 50> H          1.78010        0.74990       -0.04090
| 51> H          4.21160        0.60330       -0.04300
| 52> H          2.05420        5.06820        0.00880
| 53> H          4.50700        4.88970        0.00640
| 54> **                         ****END OF INPUT****
================================================================================

                       *****************************
                       * Geometry Optimization Run *
                       *****************************

Geometry optimization settings:
Update method            Update   .... BFGS
Choice of coordinates    CoordSys .... Z-matrix Internals
Initial Hessian          InHess   .... Almoef's Model

Convergence Tolerances:
Energy Change            TolE     ....  5.0000e-06 Eh
Max. Gradient            TolMAXG  ....  3.0000e-04 Eh/bohr
RMS Gradient             TolRMSG  ....  1.0000e-04 Eh/bohr
Max. Displacement        TolMAXD  ....  4.0000e-03 bohr
RMS Displacement         TolRMSD  ....  2.0000e-03 bohr
Strict Convergence                ....  False
------------------------------------------------------------------------------
                        ORCA OPTIMIZATION COORDINATE SETUP
------------------------------------------------------------------------------

The optimization will be done in new redundant internal coordinates
Making redundant internal coordinates   ...  (new redundants) done
Evaluating the initial hessian          ...  (Almloef) done
Evaluating the coordinates              ...  done
Calculating the B-matrix                .... done
Calculating the G-matrix                .... done
Diagonalizing the G-matrix              .... done
Small eigenvalue found = 7.050e-04
Small eigenvalue found = 3.315e-03
Small eigenvalue found = 1.112e-02
Small eigenvalue found = 1.171e-02
Small eigenvalue found = 1.350e-02
Small eigenvalue found = 1.941e-02
Small eigenvalue found = 2.229e-02
Small eigenvalue found = 2.317e-02
The first mode is                       ....  114
The number of degrees of freedom        ....  132

    -----------------------------------------------------------------
                    Redundant Internal Coordinates


    -----------------------------------------------------------------
         Definition                    Initial Value    Approx d2E/dq
    -----------------------------------------------------------------
      1. B(C   1,C   0)                  1.5314         0.371607   
      2. B(H   2,C   0)                  1.1110         0.333326   
      3. B(H   3,C   0)                  1.1065         0.338912   
      4. B(H   4,C   0)                  1.1066         0.338802   
      5. B(C   5,C   1)                  1.5421         0.357357   
      6. B(H   6,C   1)                  1.1125         0.331507   
      7. B(H   7,C   1)                  1.1125         0.331557   
      8. B(O   8,C   5)                  1.2192         1.047996   
      9. B(N   9,C   5)                  1.4000         0.539463   
     10. B(C  10,N   9)                  1.4747         0.409937   
     11. B(C  11,C  10)                  1.5415         0.358179   
     12. B(H  12,C  10)                  1.1051         0.340638   
     13. B(H  13,C  10)                  1.1053         0.340421   
     14. B(N  14,C  11)                  1.3626         0.618932   
     15. B(C  15,N  14)                  1.3548         0.636921   
     16. B(C  16,C  15)                  1.3999         0.602474   
     17. B(C  17,C  16)                  1.3979         0.606877   
     18. B(C  18,C  17)                  1.3979         0.606893   
     19. B(C  19,C  18)                  1.3986         0.605327   
     20. B(C  20,C  19)                  1.4079         0.584949   
     21. B(C  20,C  15)                  1.4044         0.592528   
     22. B(C  21,C  20)                  1.4013         0.599422   
     23. B(N  22,C  21)                  1.3766         0.587936   
     24. B(N  22,C  11)                  1.3735         0.594631   
     25. B(O  23,C  21)                  1.2211         1.040881   
     26. B(C  24,N   9)                  1.4758         0.408361   
     27. B(C  25,C  24)                  1.5477         0.350027   
     28. B(H  26,C  24)                  1.1109         0.333521   
     29. B(H  27,C  24)                  1.1109         0.333493   
     30. B(C  28,C  25)                  1.5189         0.389059   
     31. B(H  29,C  25)                  1.1121         0.332073   
     32. B(H  30,C  25)                  1.1120         0.332164   
     33. B(C  31,C  28)                  1.4119         0.576429   
     34. B(C  32,C  31)                  1.3984         0.605700   
     35. B(C  33,C  32)                  1.3969         0.609143   
     36. B(Cl 34,C  33)                  1.7541         0.368009   
     37. B(C  35,C  33)                  1.3967         0.609554   
     38. B(C  36,C  35)                  1.3977         0.607390   
     39. B(C  36,C  28)                  1.4065         0.588151   
     40. B(H  37,N  22)                  1.0290         0.403474   
     41. B(H  38,C  16)                  1.0830         0.369414   
     42. B(H  39,C  17)                  1.0824         0.370354   
     43. B(H  40,C  18)                  1.0823         0.370366   
     44. B(H  41,C  19)                  1.0831         0.369332   
     45. B(H  42,C  31)                  1.0789         0.375050   
     46. B(H  43,C  32)                  1.0828         0.369815   
     47. B(H  44,C  36)                  1.0834         0.368950   
     48. B(H  45,C  35)                  1.0825         0.370096   
     49. A(H   2,C   0,H   4)          105.6998         0.284623   
     50. A(H   2,C   0,H   3)          105.7069         0.284637   
     51. A(C   1,C   0,H   2)          108.1721         0.319963   
     52. A(C   1,C   0,H   4)          112.1858         0.320817   
     53. A(H   3,C   0,H   4)          112.3456         0.285360   
     54. A(C   1,C   0,H   3)          112.2082         0.320834   
     55. A(H   6,C   1,H   7)          107.2929         0.283427   
     56. A(C   0,C   1,H   7)          105.4369         0.319685   
     57. A(C   5,C   1,H   7)          106.1008         0.317653   
     58. A(C   0,C   1,C   5)          125.3989         0.360285   
     59. A(C   5,C   1,H   6)          106.0960         0.317645   
     60. A(C   0,C   1,H   6)          105.4679         0.319677   
     61. A(C   1,C   5,O   8)          111.2705         0.429213   
     62. A(C   1,C   5,N   9)          128.7921         0.381736   
     63. A(O   8,C   5,N   9)          119.9375         0.459378   
     64. A(C  10,N   9,C  24)          118.7954         0.370198   
     65. A(C   5,N   9,C  10)          118.6581         0.388489   
     66. A(C   5,N   9,C  24)          122.5464         0.388228   
     67. A(N   9,C  10,H  12)          106.4462         0.324362   
     68. A(N   9,C  10,C  11)          127.2914         0.364241   
     69. A(H  12,C  10,H  13)          112.0305         0.285798   
     70. A(C  11,C  10,H  13)          102.2931         0.319142   
     71. A(N   9,C  10,H  13)          106.3074         0.324328   
     72. A(C  11,C  10,H  12)          102.3212         0.319175   
     73. A(C  10,C  11,N  14)          113.4312         0.391141   
     74. A(N  14,C  11,N  22)          118.0898         0.425085   
     75. A(C  10,C  11,N  22)          128.4791         0.388415   
     76. A(C  11,N  14,C  15)          122.9297         0.430352   
     77. A(C  16,C  15,C  20)          120.1730         0.428335   
     78. A(N  14,C  15,C  20)          119.7743         0.429805   
     79. A(N  14,C  15,C  16)          120.0526         0.431091   
     80. A(C  15,C  16,H  38)          120.3206         0.352722   
     81. A(C  17,C  16,H  38)          119.6555         0.353157   
     82. A(C  15,C  16,C  17)          120.0240         0.430178   
     83. A(C  16,C  17,C  18)          120.1055         0.430743   
     84. A(C  18,C  17,H  39)          119.9474         0.353310   
     85. A(C  16,C  17,H  39)          119.9471         0.353308   
     86. A(C  19,C  18,H  40)          119.9359         0.353157   
     87. A(C  17,C  18,C  19)          120.1636         0.430545   
     88. A(C  17,C  18,H  40)          119.9005         0.353312   
     89. A(C  18,C  19,C  20)          120.0114         0.427710   
     90. A(C  20,C  19,H  41)          121.0211         0.350952   
     91. A(C  18,C  19,H  41)          118.9675         0.352990   
     92. A(C  19,C  20,C  21)          122.7091         0.426959   
     93. A(C  15,C  20,C  21)          117.7684         0.427945   
     94. A(C  15,C  20,C  19)          119.5225         0.426075   
     95. A(N  22,C  21,O  23)          119.5370         0.466080   
     96. A(C  20,C  21,O  23)          120.3490         0.470877   
     97. A(C  20,C  21,N  22)          120.1140         0.424565   
     98. A(C  11,N  22,C  21)          121.3238         0.421200   
     99. A(C  21,N  22,H  37)          114.1359         0.351262   
    100. A(C  11,N  22,H  37)          124.5403         0.351935   
    101. A(H  26,C  24,H  27)          113.5445         0.283950   
    102. A(C  25,C  24,H  27)          104.7929         0.316883   
    103. A(N   9,C  24,H  27)          106.9658         0.323032   
    104. A(C  25,C  24,H  26)          104.8521         0.316887   
    105. A(N   9,C  24,H  26)          107.0016         0.323036   
    106. A(N   9,C  24,C  25)          119.9568         0.362571   
    107. A(H  29,C  25,H  30)          110.6651         0.283582   
    108. A(C  28,C  25,H  30)          106.4706         0.322191   
    109. A(C  24,C  25,H  30)          108.8907         0.316677   
    110. A(C  28,C  25,H  29)          106.4658         0.322176   
    111. A(C  24,C  25,H  29)          108.8157         0.316663   
    112. A(C  24,C  25,C  28)          115.4892         0.361835   
    113. A(C  31,C  28,C  36)          118.5375         0.424394   
    114. A(C  25,C  28,C  36)          117.6820         0.395841   
    115. A(C  25,C  28,C  31)          123.7805         0.394446   
    116. A(C  28,C  31,C  32)          120.4662         0.426634   
    117. A(C  32,C  31,H  42)          117.7129         0.353947   
    118. A(C  28,C  31,H  42)          121.8209         0.350993   
    119. A(C  31,C  32,C  33)          120.2529         0.430879   
    120. A(C  33,C  32,H  43)          120.0947         0.353444   
    121. A(C  31,C  32,H  43)          119.6525         0.353105   
    122. A(Cl 34,C  33,C  35)          120.0694         0.412084   
    123. A(C  32,C  33,C  35)          119.8520         0.431370   
    124. A(C  32,C  33,Cl 34)          120.0785         0.412035   
    125. A(C  33,C  35,C  36)          120.1025         0.431146   
    126. A(C  36,C  35,H  45)          119.7050         0.353317   
    127. A(C  33,C  35,H  45)          120.1925         0.353530   
    128. A(C  35,C  36,H  44)          118.9945         0.353132   
    129. A(C  28,C  36,H  44)          120.2166         0.351215   
    130. A(C  28,C  36,C  35)          120.7889         0.428390   
    131. D(H   7,C   1,C   0,H   3)   -172.9134         0.011033   
    132. D(H   7,C   1,C   0,H   4)     59.4986         0.011033   
    133. D(C   5,C   1,C   0,H   2)    179.9920         0.011033   
    134. D(H   6,C   1,C   0,H   2)     56.6556         0.011033   
    135. D(H   6,C   1,C   0,H   3)    -59.5611         0.011033   
    136. D(H   7,C   1,C   0,H   2)    -56.6967         0.011033   
    137. D(C   5,C   1,C   0,H   3)     63.7753         0.011033   
    138. D(H   6,C   1,C   0,H   4)    172.8509         0.011033   
    139. D(C   5,C   1,C   0,H   4)    -63.8127         0.011033   
    140. D(N   9,C   5,C   1,H   7)   -123.0969         0.009615   
    141. D(O   8,C   5,C   1,H   7)     56.8946         0.009615   
    142. D(N   9,C   5,C   1,H   6)    122.9927         0.009615   
    143. D(N   9,C   5,C   1,C   0)     -0.0725         0.009615   
    144. D(O   8,C   5,C   1,C   0)    179.9190         0.009615   
    145. D(O   8,C   5,C   1,H   6)    -57.0158         0.009615   
    146. D(C  24,N   9,C   5,C   1)   -179.9513         0.023149   
    147. D(C  24,N   9,C   5,O   8)      0.0578         0.023149   
    148. D(C  10,N   9,C   5,O   8)    179.9446         0.023149   
    149. D(C  10,N   9,C   5,C   1)     -0.0646         0.023149   
    150. D(H  13,C  10,N   9,C  24)    120.0663         0.014336   
    151. D(H  12,C  10,N   9,C  24)   -120.3393         0.014336   
    152. D(C  11,C  10,N   9,C  24)     -0.0427         0.014336   
    153. D(C  11,C  10,N   9,C   5)   -179.9337         0.014336   
    154. D(H  13,C  10,N   9,C   5)    -59.8247         0.014336   
    155. D(H  12,C  10,N   9,C   5)     59.7696         0.014336   
    156. D(N  22,C  11,C  10,H  12)    121.6172         0.009655   
    157. D(N  14,C  11,C  10,H  13)     57.7635         0.009655   
    158. D(N  14,C  11,C  10,H  12)    -58.3755         0.009655   
    159. D(N  14,C  11,C  10,N   9)    179.5786         0.009655   
    160. D(N  22,C  11,C  10,H  13)   -122.2438         0.009655   
    161. D(N  22,C  11,C  10,N   9)     -0.4287         0.009655   
    162. D(C  15,N  14,C  11,N  22)      0.0436         0.028098   
    163. D(C  15,N  14,C  11,C  10)   -179.9628         0.028098   
    164. D(C  20,C  15,N  14,C  11)     -0.0387         0.029884   
    165. D(C  16,C  15,N  14,C  11)    179.9543         0.029884   
    166. D(H  38,C  16,C  15,C  20)    179.9947         0.025034   
    167. D(H  38,C  16,C  15,N  14)      0.0017         0.025034   
    168. D(C  17,C  16,C  15,C  20)      0.0013         0.025034   
    169. D(C  17,C  16,C  15,N  14)   -179.9917         0.025034   
    170. D(H  39,C  17,C  16,C  15)    179.9863         0.025422   
    171. D(C  18,C  17,C  16,H  38)   -179.9989         0.025422   
    172. D(C  18,C  17,C  16,C  15)     -0.0054         0.025422   
    173. D(H  39,C  17,C  16,H  38)     -0.0071         0.025422   
    174. D(H  40,C  18,C  17,H  39)      0.0106         0.025423   
    175. D(H  40,C  18,C  17,C  16)   -179.9977         0.025423   
    176. D(C  19,C  18,C  17,H  39)   -179.9886         0.025423   
    177. D(C  19,C  18,C  17,C  16)      0.0032         0.025423   
    178. D(H  41,C  19,C  18,H  40)     -0.0000         0.025285   
    179. D(H  41,C  19,C  18,C  17)    179.9991         0.025285   
    180. D(C  20,C  19,C  18,H  40)   -179.9959         0.025285   
    181. D(C  20,C  19,C  18,C  17)      0.0032         0.025285   
    182. D(C  21,C  20,C  19,C  18)    179.9838         0.023527   
    183. D(C  15,C  20,C  19,H  41)    179.9969         0.023527   
    184. D(C  15,C  20,C  19,C  18)     -0.0073         0.023527   
    185. D(C  21,C  20,C  15,C  16)   -179.9865         0.024171   
    186. D(C  21,C  20,C  15,N  14)      0.0065         0.024171   
    187. D(C  19,C  20,C  15,C  16)      0.0051         0.024171   
    188. D(C  21,C  20,C  19,H  41)     -0.0120         0.023527   
    189. D(C  19,C  20,C  15,N  14)    179.9980         0.024171   
    190. D(O  23,C  21,C  20,C  19)      0.0286         0.024767   
    191. D(O  23,C  21,C  20,C  15)   -179.9801         0.024767   
    192. D(N  22,C  21,C  20,C  19)   -179.9726         0.024767   
    193. D(N  22,C  21,C  20,C  15)      0.0187         0.024767   
    194. D(H  37,N  22,C  21,C  20)   -179.9661         0.027775   
    195. D(C  11,N  22,C  21,O  23)    179.9851         0.027775   
    196. D(C  11,N  22,C  21,C  20)     -0.0137         0.027775   
    197. D(H  37,N  22,C  11,N  14)    179.9306         0.028455   
    198. D(H  37,N  22,C  11,C  10)     -0.0619         0.028455   
    199. D(C  21,N  22,C  11,N  14)     -0.0168         0.028455   
    200. D(H  37,N  22,C  21,O  23)      0.0327         0.027775   
    201. D(C  21,N  22,C  11,C  10)    179.9908         0.028455   
    202. D(H  27,C  24,N   9,C  10)    -60.6760         0.014228   
    203. D(H  27,C  24,N   9,C   5)    119.2106         0.014228   
    204. D(H  26,C  24,N   9,C  10)     61.3297         0.014228   
    205. D(H  26,C  24,N   9,C   5)   -118.7837         0.014228   
    206. D(C  25,C  24,N   9,C  10)   -179.6188         0.014228   
    207. D(C  25,C  24,N   9,C   5)      0.2677         0.014228   
    208. D(H  30,C  25,C  24,H  27)    179.4680         0.009871   
    209. D(H  30,C  25,C  24,H  26)     59.6356         0.009871   
    210. D(H  30,C  25,C  24,N   9)    -60.4960         0.009871   
    211. D(H  29,C  25,C  24,H  27)    -59.8248         0.009871   
    212. D(H  29,C  25,C  24,H  26)   -179.6572         0.009871   
    213. D(H  29,C  25,C  24,N   9)     60.2112         0.009871   
    214. D(C  28,C  25,C  24,H  27)     59.7907         0.009871   
    215. D(C  28,C  25,C  24,H  26)    -60.0417         0.009871   
    216. D(C  28,C  25,C  24,N   9)    179.8267         0.009871   
    217. D(C  36,C  28,C  25,H  30)     59.1194         0.011264   
    218. D(C  36,C  28,C  25,H  29)    -58.9882         0.011264   
    219. D(C  36,C  28,C  25,C  24)   -179.8849         0.011264   
    220. D(C  31,C  28,C  25,H  30)   -120.8871         0.011264   
    221. D(C  31,C  28,C  25,H  29)    121.0053         0.011264   
    222. D(C  31,C  28,C  25,C  24)      0.1087         0.011264   
    223. D(H  42,C  31,C  28,C  36)   -179.9924         0.022815   
    224. D(H  42,C  31,C  28,C  25)      0.0141         0.022815   
    225. D(C  32,C  31,C  28,C  36)      0.0107         0.022815   
    226. D(C  32,C  31,C  28,C  25)   -179.9829         0.022815   
    227. D(H  43,C  32,C  31,H  42)     -0.0001         0.025318   
    228. D(H  43,C  32,C  31,C  28)    179.9970         0.025318   
    229. D(C  33,C  32,C  31,H  42)   -180.0000         0.025318   
    230. D(C  33,C  32,C  31,C  28)     -0.0029         0.025318   
    231. D(C  35,C  33,C  32,H  43)   -179.9975         0.025623   
    232. D(C  35,C  33,C  32,C  31)      0.0024         0.025623   
    233. D(Cl 34,C  33,C  32,H  43)     -0.0071         0.025623   
    234. D(Cl 34,C  33,C  32,C  31)    179.9928         0.025623   
    235. D(H  45,C  35,C  33,Cl 34)      0.0079         0.025659   
    236. D(H  45,C  35,C  33,C  32)    179.9983         0.025659   
    237. D(C  36,C  35,C  33,Cl 34)    179.9998         0.025659   
    238. D(C  36,C  35,C  33,C  32)     -0.0098         0.025659   
    239. D(H  44,C  36,C  35,H  45)     -0.0124         0.025467   
    240. D(H  44,C  36,C  35,C  33)    179.9957         0.025467   
    241. D(C  28,C  36,C  35,H  45)   -179.9901         0.025467   
    242. D(C  28,C  36,C  35,C  33)      0.0180         0.025467   
    243. D(H  44,C  36,C  28,C  31)   -179.9956         0.023798   
    244. D(H  44,C  36,C  28,C  25)     -0.0017         0.023798   
    245. D(C  35,C  36,C  28,C  31)     -0.0182         0.023798   
    246. D(C  35,C  36,C  28,C  25)    179.9757         0.023798   
    -----------------------------------------------------------------

Number of atoms                         .... 46
Number of degrees of freedom            .... 246

         *************************************************************
         *                GEOMETRY OPTIMIZATION CYCLE   1            *
         *************************************************************
---------------------------------
CARTESIAN COORDINATES (ANGSTROEM)
---------------------------------
  C     -5.396200    2.237500   -0.005000
  C     -4.327100    3.334000   -0.001200
  H     -6.393900    2.726300    0.002700
  H     -5.360400    1.615300    0.909300
  H     -5.367800    1.629400   -0.929100
  C     -2.803500    3.096100   -0.009000
  H     -4.538300    3.951200    0.900000
  H     -4.545600    3.963700   -0.891900
  O     -2.191200    4.150400   -0.005300
  N     -2.105300    1.882700   -0.019300
  C     -2.874200    0.624300   -0.022300
  C     -2.314700   -0.812000   -0.031700
  H     -3.497400    0.640600   -0.934800
  H     -3.486300    0.632400    0.898000
  N     -3.282900   -1.770700   -0.023200
  C     -3.006200   -3.096900   -0.028500
  C     -4.049100   -4.030700   -0.018200
  C     -3.762900   -5.399000   -0.023500
  C     -2.435700   -5.837700   -0.039200
  C     -1.389000   -4.910100   -0.049600
  C     -1.670500   -3.530600   -0.044200
  C     -0.666700   -2.552900   -0.053700
  N     -1.002700   -1.218000   -0.047200
  O      0.510400   -2.877300   -0.067800
  C     -0.631100    1.815000   -0.024800
  C      0.202500    3.119000   -0.012900
  H     -0.333300    1.295200   -0.960300
  H     -0.327900    1.276100    0.898100
  C      1.709800    2.931300   -0.015700
  H     -0.042000    3.692600    0.907900
  H     -0.043100    3.711600   -0.921200
  C      2.343800    1.669800   -0.030400
  C      3.739200    1.577500   -0.031700
  C      4.521100    2.735000   -0.018500
  Cl     6.271000    2.613900   -0.020000
  C      3.906400    3.989100   -0.003900
  C      2.512100    4.086400   -0.002700
  H     -0.194800   -0.580700   -0.055700
  H     -5.080000   -3.698900   -0.006000
  H     -4.570200   -6.119900   -0.015300
  H     -2.217900   -6.897900   -0.043300
  H     -0.368000   -5.271400   -0.061700
  H      1.780100    0.749900   -0.040900
  H      4.211600    0.603300   -0.043000
  H      2.054200    5.068200    0.008800
  H      4.507000    4.889700    0.006400

----------------------------
CARTESIAN COORDINATES (A.U.)
----------------------------
  NO LB      ZA    FRAG     MASS         X           Y           Z
   0 C     6.0000    0    12.011  -10.197340    4.228262   -0.009449
   1 C     6.0000    0    12.011   -8.177034    6.300347   -0.002268
   2 H     1.0000    0     1.008  -12.082720    5.151960    0.005102
   3 H     1.0000    0     1.008  -10.129688    3.052475    1.718328
   4 H     1.0000    0     1.008  -10.143672    3.079120   -1.755745
   5 C     6.0000    0    12.011   -5.297847    5.850781   -0.017008
   6 H     1.0000    0     1.008   -8.576144    7.466686    1.700754
   7 H     1.0000    0     1.008   -8.589939    7.490307   -1.685447
   8 O     8.0000    0    15.999   -4.140768    7.843119   -0.010016
   9 N     7.0000    0    14.007   -3.978440    3.557787   -0.036472
  10 C     6.0000    0    12.011   -5.431451    1.179756   -0.042141
  11 C     6.0000    0    12.011   -4.374149   -1.534458   -0.059904
  12 H     1.0000    0     1.008   -6.609128    1.210559   -1.766516
  13 H     1.0000    0     1.008   -6.588152    1.195063    1.696974
  14 N     7.0000    0    14.007   -6.203782   -3.346138   -0.043842
  15 C     6.0000    0    12.011   -5.680895   -5.852293   -0.053857
  16 C     6.0000    0    12.011   -7.651690   -7.616919   -0.034393
  17 C     6.0000    0    12.011   -7.110850  -10.202631   -0.044409
  18 C     6.0000    0    12.011   -4.602806  -11.031654   -0.074077
  19 C     6.0000    0    12.011   -2.624830   -9.278744   -0.093730
  20 C     6.0000    0    12.011   -3.156788   -6.671867   -0.083526
  21 C     6.0000    0    12.011   -1.259880   -4.824282   -0.101478
  22 N     7.0000    0    14.007   -1.894828   -2.301686   -0.089195
  23 O     8.0000    0    15.999    0.964516   -5.437309   -0.128123
  24 C     6.0000    0    12.011   -1.192606    3.429853   -0.046865
  25 C     6.0000    0    12.011    0.382670    5.894056   -0.024377
  26 H     1.0000    0     1.008   -0.629846    2.447573   -1.814704
  27 H     1.0000    0     1.008   -0.619641    2.411480    1.697163
  28 C     6.0000    0    12.011    3.231054    5.539354   -0.029669
  29 H     1.0000    0     1.008   -0.079368    6.978003    1.715682
  30 H     1.0000    0     1.008   -0.081447    7.013908   -1.740816
  31 C     6.0000    0    12.011    4.429140    3.155465   -0.057448
  32 C     6.0000    0    12.011    7.066064    2.981043   -0.059904
  33 C     6.0000    0    12.011    8.543641    5.168401   -0.034960
  34 Cl   17.0000    0    35.453   11.850473    4.939555   -0.037795
  35 C     6.0000    0    12.011    7.382026    7.538307   -0.007370
  36 C     6.0000    0    12.011    4.747181    7.722177   -0.005102
  37 H     1.0000    0     1.008   -0.368119   -1.097364   -0.105258
  38 H     1.0000    0     1.008   -9.599809   -6.989908   -0.011338
  39 H     1.0000    0     1.008   -8.636426  -11.564935   -0.028913
  40 H     1.0000    0     1.008   -4.191224  -13.035142   -0.081825
  41 H     1.0000    0     1.008   -0.695419   -9.961502   -0.116596
  42 H     1.0000    0     1.008    3.363901    1.417106   -0.077290
  43 H     1.0000    0     1.008    7.958771    1.140072   -0.081258
  44 H     1.0000    0     1.008    3.881875    9.577510    0.016630
  45 H     1.0000    0     1.008    8.516996    9.240194    0.012094

--------------------------------
INTERNAL COORDINATES (ANGSTROEM)
--------------------------------
 C      0   0   0     0.000000000000     0.00000000     0.00000000
 C      1   0   0     1.531437723187     0.00000000     0.00000000
 H      1   2   0     1.111031061672   108.17209055     0.00000000
 H      1   2   3     1.106507555329   112.20821894   243.78335256
 H      1   2   3     1.106595219581   112.18579365   116.19533410
 C      2   1   3     1.542081129513   125.39888833   179.99196253
 H      2   1   3     1.112520885197   105.46794253    56.65556480
 H      2   1   3     1.112479586330   105.43687044   303.30325013
 O      6   2   1     1.219210182864   111.27047271   179.91904734
 N      6   2   1     1.399974603341   128.79205840   359.92752960
 C     10   6   2     1.474715826863   118.65808667   359.93543122
 C     11  10   6     1.541455902710   127.29144649   180.06627252
 H     11  10   6     1.105124508822   106.44616624    59.76964341
 H     11  10   6     1.105298199582   106.30742741   300.17526971
 N     12  11  10     1.362567128622   113.43117058   179.57859344
 C     15  12  11     1.354768400872   122.92965537   180.03716003
 C     16  15  12     1.399903189510   120.05262763   179.95428624
 C     17  16  15     1.397921106501   120.02396766   180.00834840
 C     18  17  16     1.397914167608   120.10548883     0.00000000
 C     19  18  17     1.398617463783   120.16363709     0.00000000
 C     16  15  12     1.404434644261   119.77432721   359.96133051
 C     21  16  15     1.401285830942   117.76843228     0.00000000
 N     12  11  10     1.373470148929   128.47906743   359.57130707
 O     22  21  16     1.221064527369   120.34902697   180.01990693
 C     10   6   2     1.475763930986   122.54644358   180.04870769
 C     25  10   6     1.547723027547   119.95684955     0.26774773
 H     25  10   6     1.110872238378   107.00155798   241.21630781
 H     25  10   6     1.110895071553   106.96584486   119.21056628
 C     26  25  10     1.518944508532   115.48920772   179.82665783
 H     26  25  10     1.112056585790   108.81573079    60.21118255
 H     26  25  10     1.111981569092   108.89066842   299.50397920
 C     29  26  25     1.411932838346   123.78054651     0.10865273
 C     32  29  26     1.398449906146   120.46618880   180.01713907
 C     33  32  29     1.396906618210   120.25286589     0.00000000
 Cl    34  33  32     1.754085935751   120.07851200   179.99275669
 C     34  33  32     1.396723329797   119.85204701     0.00000000
 C     36  34  33     1.397691389399   120.10252165     0.00000000
 H     23  12  11     1.029041277112   124.54025997   359.93813433
 H     17  16  15     1.083048886247   120.32057432     0.00000000
 H     18  17  16     1.082357306992   119.94709212   179.98632256
 H     19  18  17     1.082348229545   119.90049811   180.00233475
 H     20  19  18     1.083108997285   118.96749836   179.99909981
 H     32  29  26     1.078927221827   121.82090297     0.00000000
 H     33  32  29     1.082753476097   119.65246036   179.99699896
 H     37  36  34     1.083390926674   118.99445394   179.99569338
 H     36  34  33     1.082546447040   120.19249709   179.99828101

---------------------------
INTERNAL COORDINATES (A.U.)
---------------------------
 C      0   0   0     0.000000000000     0.00000000     0.00000000
 C      1   0   0     2.893997887979     0.00000000     0.00000000
 H      1   2   0     2.099544432840   108.17209055     0.00000000
 H      1   2   3     2.090996244686   112.20821894   243.78335256
 H      1   2   3     2.091161906115   112.18579365   116.19533410
 C      2   1   3     2.914111011067   125.39888833   179.99196253
 H      2   1   3     2.102359791290   105.46794253    56.65556480
 H      2   1   3     2.102281747741   105.43687044   303.30325013
 O      6   2   1     2.303973345302   111.27047271   179.91904734
 N      6   2   1     2.645568594760   128.79205840   359.92752960
 C     10   6   2     2.786809038130   118.65808667   359.93543122
 C     11  10   6     2.912929503639   127.29144649   180.06627252
 H     11  10   6     2.088382665559   106.44616624    59.76964341
 H     11  10   6     2.088710893527   106.30742741   300.17526971
 N     12  11  10     2.574878712178   113.43117058   179.57859344
 C     15  12  11     2.560141252538   122.92965537   180.03716003
 C     16  15  12     2.645433642177   120.05262763   179.95428624
 C     17  16  15     2.641688048114   120.02396766   180.00834840
 C     18  17  16     2.641674935508   120.10548883     0.00000000
 C     19  18  17     2.643003972670   120.16363709     0.00000000
 C     16  15  12     2.653996850644   119.77432721   359.96133051
 C     21  16  15     2.648046455825   117.76843228     0.00000000
 N     12  11  10     2.595482434592   128.47906743   359.57130707
 O     22  21  16     2.307477548574   120.34902697   180.01990693
 C     10   6   2     2.788789667883   122.54644358   180.04870769
 C     25  10   6     2.924772653228   119.95684955     0.26774773
 H     25  10   6     2.099244300311   107.00155798   241.21630781
 H     25  10   6     2.099287448757   106.96584486   119.21056628
 C     26  25  10     2.870389133749   115.48920772   179.82665783
 H     26  25  10     2.101482392568   108.81573079    60.21118255
 H     26  25  10     2.101340631552   108.89066842   299.50397920
 C     29  26  25     2.668166383964   123.78054651     0.10865273
 C     32  29  26     2.642687334624   120.46618880   180.01713907
 C     33  32  29     2.639770943080   120.25286589     0.00000000
 Cl    34  33  32     3.314742033933   120.07851200   179.99275669
 C     34  33  32     2.639424578175   119.85204701     0.00000000
 C     36  34  33     2.641253945704   120.10252165     0.00000000
 H     23  12  11     1.944606194242   124.54025997   359.93813433
 H     17  16  15     2.046665784655   120.32057432     0.00000000
 H     18  17  16     2.045358889264   119.94709212   179.98632256
 H     19  18  17     2.045341735375   119.90049811   180.00233475
 H     20  19  18     2.046779378055   118.96749836   179.99909981
 H     32  29  26     2.038876967686   121.82090297     0.00000000
 H     33  32  29     2.046107540374   119.65246036   179.99699896
 H     37  36  34     2.047312147389   118.99445394   179.99569338
 H     36  34  33     2.045716312156   120.19249709   179.99828101

---------------------
BASIS SET INFORMATION
---------------------
There are 5 groups of distinct atoms

 Group   1 Type C   : 7s4p1d contracted to 3s2p1d pattern {511/31/1}
 Group   2 Type H   : 4s1p contracted to 2s1p pattern {31/1}
 Group   3 Type O   : 7s4p1d contracted to 3s2p1d pattern {511/31/1}
 Group   4 Type N   : 7s4p1d contracted to 3s2p1d pattern {511/31/1}
 Group   5 Type Cl  : 10s7p1d contracted to 4s3p1d pattern {5311/511/1}

Atom   0C    basis set group =>   1
Atom   1C    basis set group =>   1
Atom   2H    basis set group =>   2
Atom   3H    basis set group =>   2
Atom   4H    basis set group =>   2
Atom   5C    basis set group =>   1
Atom   6H    basis set group =>   2
Atom   7H    basis set group =>   2
Atom   8O    basis set group =>   3
Atom   9N    basis set group =>   4
Atom  10C    basis set group =>   1
Atom  11C    basis set group =>   1
Atom  12H    basis set group =>   2
Atom  13H    basis set group =>   2
Atom  14N    basis set group =>   4
Atom  15C    basis set group =>   1
Atom  16C    basis set group =>   1
Atom  17C    basis set group =>   1
Atom  18C    basis set group =>   1
Atom  19C    basis set group =>   1
Atom  20C    basis set group =>   1
Atom  21C    basis set group =>   1
Atom  22N    basis set group =>   4
Atom  23O    basis set group =>   3
Atom  24C    basis set group =>   1
Atom  25C    basis set group =>   1
Atom  26H    basis set group =>   2
Atom  27H    basis set group =>   2
Atom  28C    basis set group =>   1
Atom  29H    basis set group =>   2
Atom  30H    basis set group =>   2
Atom  31C    basis set group =>   1
Atom  32C    basis set group =>   1
Atom  33C    basis set group =>   1
Atom  34Cl   basis set group =>   5
Atom  35C    basis set group =>   1
Atom  36C    basis set group =>   1
Atom  37H    basis set group =>   2
Atom  38H    basis set group =>   2
Atom  39H    basis set group =>   2
Atom  40H    basis set group =>   2
Atom  41H    basis set group =>   2
Atom  42H    basis set group =>   2
Atom  43H    basis set group =>   2
Atom  44H    basis set group =>   2
Atom  45H    basis set group =>   2
---------------------------------
AUXILIARY/J BASIS SET INFORMATION
---------------------------------
There are 5 groups of distinct atoms

 Group   1 Type C   : 12s5p4d2f1g contracted to 6s4p3d1f1g pattern {711111/2111/211/2/1}
 Group   2 Type H   : 5s2p1d contracted to 3s1p1d pattern {311/2/1}
 Group   3 Type O   : 12s5p4d2f1g contracted to 6s4p3d1f1g pattern {711111/2111/211/2/1}
 Group   4 Type N   : 12s5p4d2f1g contracted to 6s4p3d1f1g pattern {711111/2111/211/2/1}
 Group   5 Type Cl  : 14s5p5d2f1g contracted to 8s4p3d1f1g pattern {71111111/2111/311/2/1}

Atom   0C    basis set group =>   1
Atom   1C    basis set group =>   1
Atom   2H    basis set group =>   2
Atom   3H    basis set group =>   2
Atom   4H    basis set group =>   2
Atom   5C    basis set group =>   1
Atom   6H    basis set group =>   2
Atom   7H    basis set group =>   2
Atom   8O    basis set group =>   3
Atom   9N    basis set group =>   4
Atom  10C    basis set group =>   1
Atom  11C    basis set group =>   1
Atom  12H    basis set group =>   2
Atom  13H    basis set group =>   2
Atom  14N    basis set group =>   4
Atom  15C    basis set group =>   1
Atom  16C    basis set group =>   1
Atom  17C    basis set group =>   1
Atom  18C    basis set group =>   1
Atom  19C    basis set group =>   1
Atom  20C    basis set group =>   1
Atom  21C    basis set group =>   1
Atom  22N    basis set group =>   4
Atom  23O    basis set group =>   3
Atom  24C    basis set group =>   1
Atom  25C    basis set group =>   1
Atom  26H    basis set group =>   2
Atom  27H    basis set group =>   2
Atom  28C    basis set group =>   1
Atom  29H    basis set group =>   2
Atom  30H    basis set group =>   2
Atom  31C    basis set group =>   1
Atom  32C    basis set group =>   1
Atom  33C    basis set group =>   1
Atom  34Cl   basis set group =>   5
Atom  35C    basis set group =>   1
Atom  36C    basis set group =>   1
Atom  37H    basis set group =>   2
Atom  38H    basis set group =>   2
Atom  39H    basis set group =>   2
Atom  40H    basis set group =>   2
Atom  41H    basis set group =>   2
Atom  42H    basis set group =>   2
Atom  43H    basis set group =>   2
Atom  44H    basis set group =>   2
Atom  45H    basis set group =>   2
------------------------------------------------------------------------------
                           ORCA GTO INTEGRAL CALCULATION
                           -- RI-GTO INTEGRALS CHOSEN --
------------------------------------------------------------------------------
------------------------------------------------------------------------------
                   ___                                                        
                  /   \      - P O W E R E D   B Y -                         
                 /     \                                                     
                 |  |  |   _    _      __       _____    __    __             
                 |  |  |  | |  | |    /  \     |  _  \  |  |  /  |          
                  \  \/   | |  | |   /    \    | | | |  |  | /  /          
                 / \  \   | |__| |  /  /\  \   | |_| |  |  |/  /          
                |  |  |   |  __  | /  /__\  \  |    /   |      \           
                |  |  |   | |  | | |   __   |  |    \   |  |\   \          
                \     /   | |  | | |  |  |  |  | |\  \  |  | \   \       
                 \___/    |_|  |_| |__|  |__|  |_| \__\ |__|  \__/        
                                                                              
                      - O R C A' S   B I G   F R I E N D -                    
                                      &                                       
                       - I N T E G R A L  F E E D E R -                       
                                                                              
 v1 FN, 2020, v2 2021                                                         
------------------------------------------------------------------------------


Reading SHARK input file input.SHARKINP.tmp ... ok
----------------------
SHARK INTEGRAL PACKAGE
----------------------

Number of atoms                             ...     46
Number of basis functions                   ...    468
Number of shells                            ...    218
Maximum angular momentum                    ...      2
Integral batch strategy                     ... SHARK/LIBINT Hybrid
RI-J (if used) integral strategy            ... SPLIT-RIJ (Revised 2003 algorithm where possible)
Printlevel                                  ...      1
Contraction scheme used                     ... SEGMENTED contraction
Coulomb Range Separation                    ... NOT USED
Exchange Range Separation                   ... NOT USED
Finite Nucleus Model                        ... NOT USED
Auxiliary Coulomb fitting basis             ... AVAILABLE
   # of basis functions in Aux-J            ...   1496
   # of shells in Aux-J                     ...    492
   Maximum angular momentum in Aux-J        ...      4
Auxiliary J/K fitting basis                 ... NOT available
Auxiliary Correlation fitting basis         ... NOT available
Auxiliary 'external' fitting basis          ... NOT available
Integral threshold                          ...     2.500000e-11
Primitive cut-off                           ...     2.500000e-12
Primitive pair pre-selection threshold      ...     2.500000e-12

Calculating pre-screening integrals         ... done (  0.0 sec) Dimension = 218
Organizing shell pair data                  ... done (  0.0 sec)
Shell pair information
Total number of shell pairs                 ...     23871
Shell pairs after pre-screening             ...     14849
Total number of primitive shell pairs       ...     87979
Primitive shell pairs kept                  ...     34027
          la=0 lb=0:   4622 shell pairs
          la=1 lb=0:   5577 shell pairs
          la=1 lb=1:   1732 shell pairs
          la=2 lb=0:   1724 shell pairs
          la=2 lb=1:   1035 shell pairs
          la=2 lb=2:    159 shell pairs

Calculating one electron integrals          ... done (  0.0 sec)
Calculating RI/J V-Matrix + Cholesky decomp.... done (  0.1 sec)
Calculating Nuclear repulsion               ... done (  0.0 sec) ENN=   2264.965851826248 Eh

SHARK setup successfully completed in   0.3 seconds

Maximum memory used throughout the entire GTOINT-calculation: 88.0 MB
-------------------------------------------------------------------------------
                                 ORCA SCF
-------------------------------------------------------------------------------

------------
SCF SETTINGS
------------
Hamiltonian:
 Density Functional     Method          .... DFT(GTOs)
 Exchange Functional    Exchange        .... B88
   X-Alpha parameter    XAlpha          ....  0.666667
   Becke's b parameter  XBeta           ....  0.004200
 Correlation Functional Correlation     .... P86
 LDA part of GGA corr.  LDAOpt          .... PW91-LDA
 Gradients option       PostSCFGGA      .... off
   Density functional embedding theory  .... OFF
   NL short-range parameter             ....  4.400000
 RI-approximation to the Coulomb term is turned on
   Number of AuxJ basis functions       .... 1496


General Settings:
 Integral files         IntName         .... input
 Hartree-Fock type      HFTyp           .... RHF
 Total Charge           Charge          ....    0
 Multiplicity           Mult            ....    1
 Number of Electrons    NEL             ....  194
 Basis Dimension        Dim             ....  468
 Nuclear Repulsion      ENuc            ....   2264.9658518262 Eh

Convergence Acceleration:
 DIIS                   CNVDIIS         .... on
   Start iteration      DIISMaxIt       ....    12
   Startup error        DIISStart       ....  0.200000
   # of expansion vecs  DIISMaxEq       ....     5
   Bias factor          DIISBfac        ....   1.050
   Max. coefficient     DIISMaxC        ....  10.000
 Trust-Rad. Augm. Hess. CNVTRAH         .... auto
   Auto Start mean grad. ratio tolernc. ....  1.125000
   Auto Start start iteration           ....    20
   Auto Start num. interpolation iter.  ....    10
   Max. Number of Micro iterations      ....    16
   Max. Number of Macro iterations      .... Maxiter - #DIIS iter
   Number of Davidson start vectors     ....     2
   Converg. threshold I  (grad. norm)   ....   1.000e-05
   Converg. threshold II (energy diff.) ....   1.000e-08
   Grad. Scal. Fac. for Micro threshold ....   0.100
   Minimum threshold for Micro iter.    ....   0.010
   NR start threshold (gradient norm)   ....   0.001
   Initial trust radius                 ....   0.400
   Minimum AH scaling param. (alpha)    ....   1.000
   Maximum AH scaling param. (alpha)    .... 1000.000
   Orbital update algorithm             .... Taylor
   White noise on init. David. guess    .... on
   Maximum white noise                  ....   0.010
   Quad. conv. algorithm                .... NR
 SOSCF                  CNVSOSCF        .... on
   Start iteration      SOSCFMaxIt      ....   150
   Startup grad/error   SOSCFStart      ....  0.003300
 Level Shifting         CNVShift        .... on
   Level shift para.    LevelShift      ....    0.2500
   Turn off err/grad.   ShiftErr        ....    0.0010
 Zerner damping         CNVZerner       .... off
 Static damping         CNVDamp         .... on
   Fraction old density DampFac         ....    0.7000
   Max. Damping (<1)    DampMax         ....    0.9800
   Min. Damping (>=0)   DampMin         ....    0.0000
   Turn off err/grad.   DampErr         ....    0.1000
 Fernandez-Rico         CNVRico         .... off

SCF Procedure:
 Maximum # iterations   MaxIter         ....   125
 SCF integral mode      SCFMode         .... Direct
   Integral package                     .... SHARK and LIBINT hybrid scheme
 Reset frequency        DirectResetFreq ....    20
 Integral Threshold     Thresh          ....  2.500e-11 Eh
 Primitive CutOff       TCut            ....  2.500e-12 Eh

Convergence Tolerance:
 Convergence Check Mode ConvCheckMode   .... Total+1el-Energy
 Convergence forced     ConvForced      .... 0
 Energy Change          TolE            ....  1.000e-08 Eh
 1-El. energy change                    ....  1.000e-05 Eh
 Orbital Gradient       TolG            ....  1.000e-05
 Orbital Rotation angle TolX            ....  1.000e-05
 DIIS Error             TolErr          ....  5.000e-07


Diagonalization of the overlap matrix:
Smallest eigenvalue                        ... 2.481e-04
Time for diagonalization                   ...    0.017 sec
Threshold for overlap eigenvalues          ... 1.000e-08
Number of eigenvalues below threshold      ... 0
Time for construction of square roots      ...    0.003 sec
Total time needed                          ...    0.020 sec

Time for model grid setup =    0.677 sec

------------------------------
INITIAL GUESS: MODEL POTENTIAL
------------------------------
Loading Hartree-Fock densities                     ... done
Calculating cut-offs                               ... done
Initializing the effective Hamiltonian             ... done
Setting up the integral package (SHARK)            ... done
Starting the Coulomb interaction                   ... done (   0.6 sec)
Reading the grid                                   ... done
Mapping shells                                     ... done
Starting the XC term evaluation                    ... done (   0.5 sec)
  promolecular density results
     # of electrons  =    194.005419717
     EX              =   -172.437920846
     EC              =     -7.264803587
     EX+EC           =   -179.702724434
Transforming the Hamiltonian                       ... done (   0.0 sec)
Diagonalizing the Hamiltonian                      ... done (   0.0 sec)
Back transforming the eigenvectors                 ... done (   0.0 sec)
Now organizing SCF variables                       ... done
                      ------------------
                      INITIAL GUESS DONE (   1.8 sec)
                      ------------------
-------------------
DFT GRID GENERATION
-------------------

General Integration Accuracy     IntAcc      ... 4.388
Radial Grid Type                 RadialGrid  ... OptM3 with GC (2021)
Angular Grid (max. ang.)         AngularGrid ... 4 (Lebedev-302)
Angular grid pruning method      GridPruning ... 4 (adaptive)
Weight generation scheme         WeightScheme... Becke
Basis function cutoff            BFCut       ... 1.0000e-11
Integration weight cutoff        WCut        ... 1.0000e-14
Angular grids for H and He will be reduced by one unit
Partially contracted basis set               ... off
Rotationally invariant grid construction     ... off

Total number of grid points                  ...   220050
Total number of batches                      ...     3463
Average number of points per batch           ...       63
Average number of grid points per atom       ...     4784
Time for grid setup =    2.494 sec

--------------
SCF ITERATIONS
--------------
ITER       Energy         Delta-E        Max-DP      RMS-DP      [F,P]     Damp
               ***  Starting incremental Fock matrix formation  ***
  0  -1547.6233235734   0.000000000000 0.15851648  0.00217489  0.2688024 0.7000
  1  -1547.9140725726  -0.290748999208 0.08472665  0.00125271  0.0754231 0.7000
                               ***Turning on DIIS***
  2  -1547.9976211354  -0.083548562865 0.06562405  0.00149590  0.0382990 0.0000
  3  -1548.1577716531  -0.160150517701 0.06988563  0.00092179  0.0473589 0.0000
  4  -1548.1884265567  -0.030654903553 0.02409312  0.00030031  0.0325273 0.0000
  5  -1548.1949093779  -0.006482821209 0.00699013  0.00010256  0.0048980 0.0000
  6  -1548.1951442307  -0.000234852782 0.00230808  0.00004263  0.0042486 0.0000
                      *** Initiating the SOSCF procedure ***
                           *** Shutting down DIIS ***
                      *** Re-Reading the Fockian *** 
                      *** Removing any level shift *** 
ITER      Energy       Delta-E        Grad      Rot      Max-DP    RMS-DP
  7  -1548.19521283  -0.0000685983  0.000285  0.000285  0.001003  0.000016
               *** Restarting incremental Fock matrix formation ***
  8  -1548.19522002  -0.0000071908  0.000247  0.002079  0.001814  0.000019
  9  -1548.19521446   0.0000055581  0.000573  0.000784  0.001403  0.000012
 10  -1548.19522207  -0.0000076101  0.000080  0.000677  0.000653  0.000008
 11  -1548.19522130   0.0000007677  0.000128  0.000304  0.000419  0.000005
 12  -1548.19522242  -0.0000011120  0.000035  0.000241  0.000201  0.000003
 13  -1548.19522219   0.0000002293  0.000070  0.000103  0.000147  0.000002
 14  -1548.19522248  -0.0000002907  0.000010  0.000083  0.000067  0.000001
 15  -1548.19522246   0.0000000190  0.000022  0.000044  0.000052  0.000001
 16  -1548.19522249  -0.0000000314  0.000004  0.000031  0.000018  0.000000
 17  -1548.19522248   0.0000000118  0.000008  0.000020  0.000013  0.000000
                  ***Gradient check signals convergence***
              ***Rediagonalizing the Fockian in SOSCF/NRSCF***

               *****************************************************
               *                     SUCCESS                       *
               *           SCF CONVERGED AFTER  18 CYCLES          *
               *****************************************************


----------------
TOTAL SCF ENERGY
----------------

Total Energy       :        -1548.19522248 Eh          -42128.53378 eV

Components:
Nuclear Repulsion  :         2264.96585183 Eh           61632.85418 eV
Electronic Energy  :        -3813.16107431 Eh         -103761.38796 eV
One Electron Energy:        -6613.19356350 Eh         -179954.14555 eV
Two Electron Energy:         2800.03248920 Eh           76192.75760 eV

Virial components:
Potential Energy   :        -3083.50203756 Eh          -83906.35616 eV
Kinetic Energy     :         1535.30681508 Eh           41777.82238 eV
Virial Ratio       :            2.00839468


DFT components:
N(Alpha)           :       97.000122574195 electrons
N(Beta)            :       97.000122574195 electrons
N(Total)           :      194.000245148391 electrons
E(X)               :     -174.803264490541 Eh       
E(C)               :       -7.263400176583 Eh       
E(XC)              :     -182.066664667125 Eh       
DFET-embed. en.    :        0.000000000000 Eh       

---------------
SCF CONVERGENCE
---------------

  Last Energy change         ...   -4.3271e-09  Tolerance :   1.0000e-08
  Last MAX-Density change    ...    1.2375e-05  Tolerance :   1.0000e-07
  Last RMS-Density change    ...    1.9080e-07  Tolerance :   5.0000e-09
  Last Orbital Gradient      ...    1.8290e-06  Tolerance :   1.0000e-05
  Last Orbital Rotation      ...    7.0756e-06  Tolerance :   1.0000e-05

             **** THE GBW FILE WAS UPDATED (input.gbw) ****
             **** DENSITY input.scfp WAS UPDATED ****
             **** ENERGY FILE WAS UPDATED (input.en.tmp) ****
             **** THE GBW FILE WAS UPDATED (input.gbw) ****
             **** DENSITY input.scfp WAS UPDATED ****
----------------
ORBITAL ENERGIES
----------------

  NO   OCC          E(Eh)            E(eV) 
   0   2.0000    -100.698740     -2740.1520 
   1   2.0000     -18.748011      -510.1593 
   2   2.0000     -18.742550      -510.0107 
   3   2.0000     -14.091416      -383.4469 
   4   2.0000     -14.066820      -382.7776 
   5   2.0000     -14.015420      -381.3790 
   6   2.0000     -10.031592      -272.9735 
   7   2.0000     -10.015705      -272.5412 
   8   2.0000     -10.013300      -272.4757 
   9   2.0000      -9.988841      -271.8102 
  10   2.0000      -9.979884      -271.5665 
  11   2.0000      -9.970993      -271.3245 
  12   2.0000      -9.961368      -271.0626 
  13   2.0000      -9.935923      -270.3702 
  14   2.0000      -9.935087      -270.3475 
  15   2.0000      -9.933049      -270.2920 
  16   2.0000      -9.930798      -270.2307 
  17   2.0000      -9.930403      -270.2200 
  18   2.0000      -9.929676      -270.2002 
  19   2.0000      -9.928638      -270.1720 
  20   2.0000      -9.928361      -270.1644 
  21   2.0000      -9.927957      -270.1534 
  22   2.0000      -9.927139      -270.1312 
  23   2.0000      -9.925988      -270.0999 
  24   2.0000      -9.925452      -270.0853 
  25   2.0000      -9.923539      -270.0332 
  26   2.0000      -9.183772      -249.9031 
  27   2.0000      -7.014745      -190.8809 
  28   2.0000      -7.003462      -190.5739 
  29   2.0000      -7.002917      -190.5591 
  30   2.0000      -0.965914       -26.2839 
  31   2.0000      -0.948757       -25.8170 
  32   2.0000      -0.904632       -24.6163 
  33   2.0000      -0.859963       -23.4008 
  34   2.0000      -0.832266       -22.6471 
  35   2.0000      -0.810306       -22.0495 
  36   2.0000      -0.777602       -21.1596 
  37   2.0000      -0.767485       -20.8843 
  38   2.0000      -0.726725       -19.7752 
  39   2.0000      -0.713440       -19.4137 
  40   2.0000      -0.702607       -19.1189 
  41   2.0000      -0.695863       -18.9354 
  42   2.0000      -0.684823       -18.6350 
  43   2.0000      -0.663149       -18.0452 
  44   2.0000      -0.649136       -17.6639 
  45   2.0000      -0.614309       -16.7162 
  46   2.0000      -0.599120       -16.3029 
  47   2.0000      -0.596662       -16.2360 
  48   2.0000      -0.579936       -15.7809 
  49   2.0000      -0.560857       -15.2617 
  50   2.0000      -0.550928       -14.9915 
  51   2.0000      -0.532920       -14.5015 
  52   2.0000      -0.528277       -14.3751 
  53   2.0000      -0.517591       -14.0844 
  54   2.0000      -0.494103       -13.4452 
  55   2.0000      -0.479478       -13.0473 
  56   2.0000      -0.473412       -12.8822 
  57   2.0000      -0.464272       -12.6335 
  58   2.0000      -0.439202       -11.9513 
  59   2.0000      -0.438343       -11.9279 
  60   2.0000      -0.435262       -11.8441 
  61   2.0000      -0.430767       -11.7218 
  62   2.0000      -0.428042       -11.6476 
  63   2.0000      -0.421265       -11.4632 
  64   2.0000      -0.411467       -11.1966 
  65   2.0000      -0.410323       -11.1655 
  66   2.0000      -0.408608       -11.1188 
  67   2.0000      -0.398764       -10.8509 
  68   2.0000      -0.392105       -10.6697 
  69   2.0000      -0.387126       -10.5342 
  70   2.0000      -0.378560       -10.3011 
  71   2.0000      -0.375219       -10.2102 
  72   2.0000      -0.369528       -10.0554 
  73   2.0000      -0.365335        -9.9413 
  74   2.0000      -0.358897        -9.7661 
  75   2.0000      -0.352370        -9.5885 
  76   2.0000      -0.345682        -9.4065 
  77   2.0000      -0.343954        -9.3595 
  78   2.0000      -0.339985        -9.2515 
  79   2.0000      -0.333442        -9.0734 
  80   2.0000      -0.331354        -9.0166 
  81   2.0000      -0.326946        -8.8967 
  82   2.0000      -0.320589        -8.7237 
  83   2.0000      -0.314712        -8.5638 
  84   2.0000      -0.309720        -8.4279 
  85   2.0000      -0.302963        -8.2440 
  86   2.0000      -0.288695        -7.8558 
  87   2.0000      -0.280502        -7.6328 
  88   2.0000      -0.269138        -7.3236 
  89   2.0000      -0.243393        -6.6231 
  90   2.0000      -0.242429        -6.5968 
  91   2.0000      -0.232906        -6.3377 
  92   2.0000      -0.222967        -6.0672 
  93   2.0000      -0.220534        -6.0010 
  94   2.0000      -0.215921        -5.8755 
  95   2.0000      -0.206882        -5.6295 
  96   2.0000      -0.206104        -5.6084 
  97   0.0000      -0.088185        -2.3996 
  98   0.0000      -0.083815        -2.2807 
  99   0.0000      -0.054870        -1.4931 
 100   0.0000      -0.048453        -1.3185 
 101   0.0000      -0.032921        -0.8958 
 102   0.0000      -0.017826        -0.4851 
 103   0.0000      -0.004186        -0.1139 
 104   0.0000       0.007054         0.1920 
 105   0.0000       0.017053         0.4640 
 106   0.0000       0.021883         0.5955 
 107   0.0000       0.041304         1.1239 
 108   0.0000       0.047099         1.2816 
 109   0.0000       0.054257         1.4764 
 110   0.0000       0.059500         1.6191 
 111   0.0000       0.062130         1.6906 
 112   0.0000       0.067068         1.8250 
 113   0.0000       0.079527         2.1640 
 114   0.0000       0.085574         2.3286 
 115   0.0000       0.089138         2.4256 
 116   0.0000       0.091552         2.4913 
 117   0.0000       0.096678         2.6307 
 118   0.0000       0.101758         2.7690 
 119   0.0000       0.107914         2.9365 
 120   0.0000       0.112339         3.0569 
 121   0.0000       0.116154         3.1607 
 122   0.0000       0.116881         3.1805 
 123   0.0000       0.121592         3.3087 
 124   0.0000       0.130649         3.5552 
 125   0.0000       0.137267         3.7352 
 126   0.0000       0.139569         3.7979 
 127   0.0000       0.144279         3.9260 
 128   0.0000       0.154953         4.2165 
 129   0.0000       0.168726         4.5913 
 130   0.0000       0.171947         4.6789 
 131   0.0000       0.180294         4.9060 
 132   0.0000       0.185691         5.0529 
 133   0.0000       0.190311         5.1786 
 134   0.0000       0.202435         5.5085 
 135   0.0000       0.212842         5.7917 
 136   0.0000       0.217389         5.9155 
 137   0.0000       0.222234         6.0473 
 138   0.0000       0.234398         6.3783 
 139   0.0000       0.238200         6.4818 
 140   0.0000       0.245607         6.6833 
 141   0.0000       0.250649         6.8205 
 142   0.0000       0.258598         7.0368 
 143   0.0000       0.258987         7.0474 
 144   0.0000       0.271453         7.3866 
 145   0.0000       0.275093         7.4856 
 146   0.0000       0.294244         8.0068 
 147   0.0000       0.299623         8.1531 
 148   0.0000       0.314183         8.5494 
 149   0.0000       0.317411         8.6372 
 150   0.0000       0.320714         8.7271 
 151   0.0000       0.344665         9.3788 
 152   0.0000       0.350117         9.5272 
 153   0.0000       0.356426         9.6988 
 154   0.0000       0.369976        10.0676 
 155   0.0000       0.371390        10.1060 
 156   0.0000       0.376682        10.2500 
 157   0.0000       0.378803        10.3077 
 158   0.0000       0.385194        10.4817 
 159   0.0000       0.387522        10.5450 
 160   0.0000       0.392662        10.6849 
 161   0.0000       0.401360        10.9216 
 162   0.0000       0.404104        10.9962 
 163   0.0000       0.412074        11.2131 
 164   0.0000       0.415743        11.3129 
 165   0.0000       0.415989        11.3196 
 166   0.0000       0.424429        11.5493 
 167   0.0000       0.425623        11.5818 
 168   0.0000       0.428745        11.6668 
 169   0.0000       0.429191        11.6789 
 170   0.0000       0.435748        11.8573 
 171   0.0000       0.438797        11.9403 
 172   0.0000       0.444123        12.0852 
 173   0.0000       0.461196        12.5498 
 174   0.0000       0.466448        12.6927 
 175   0.0000       0.473486        12.8842 
 176   0.0000       0.482189        13.1210 
 177   0.0000       0.486234        13.2311 
 178   0.0000       0.491147        13.3648 
 179   0.0000       0.493508        13.4290 
 180   0.0000       0.500126        13.6091 
 181   0.0000       0.501754        13.6534 
 182   0.0000       0.510006        13.8780 
 183   0.0000       0.513411        13.9706 
 184   0.0000       0.526415        14.3245 
 185   0.0000       0.533639        14.5210 
 186   0.0000       0.540854        14.7174 
 187   0.0000       0.542092        14.7511 
 188   0.0000       0.546250        14.8642 
 189   0.0000       0.551164        14.9979 
 190   0.0000       0.560140        15.2422 
 191   0.0000       0.569375        15.4935 
 192   0.0000       0.575692        15.6654 
 193   0.0000       0.576178        15.6786 
 194   0.0000       0.577480        15.7140 
 195   0.0000       0.584207        15.8971 
 196   0.0000       0.588275        16.0078 
 197   0.0000       0.588676        16.0187 
 198   0.0000       0.593814        16.1585 
 199   0.0000       0.599925        16.3248 
 200   0.0000       0.601510        16.3679 
 201   0.0000       0.604609        16.4522 
 202   0.0000       0.606318        16.4987 
 203   0.0000       0.609912        16.5966 
 204   0.0000       0.613463        16.6932 
 205   0.0000       0.614755        16.7283 
 206   0.0000       0.623062        16.9544 
 207   0.0000       0.627734        17.0815 
 208   0.0000       0.629597        17.1322 
 209   0.0000       0.630126        17.1466 
 210   0.0000       0.635669        17.2974 
 211   0.0000       0.639601        17.4044 
 212   0.0000       0.639846        17.4111 
 213   0.0000       0.646230        17.5848 
 214   0.0000       0.652218        17.7477 
 215   0.0000       0.656494        17.8641 
 216   0.0000       0.658761        17.9258 
 217   0.0000       0.663961        18.0673 
 218   0.0000       0.667055        18.1515 
 219   0.0000       0.669522        18.2186 
 220   0.0000       0.683185        18.5904 
 221   0.0000       0.683395        18.5961 
 222   0.0000       0.685574        18.6554 
 223   0.0000       0.693721        18.8771 
 224   0.0000       0.696945        18.9648 
 225   0.0000       0.707637        19.2558 
 226   0.0000       0.709309        19.3013 
 227   0.0000       0.714824        19.4513 
 228   0.0000       0.725777        19.7494 
 229   0.0000       0.731542        19.9063 
 230   0.0000       0.735559        20.0156 
 231   0.0000       0.742892        20.2151 
 232   0.0000       0.749006        20.3815 
 233   0.0000       0.750783        20.4298 
 234   0.0000       0.759833        20.6761 
 235   0.0000       0.773193        21.0397 
 236   0.0000       0.786618        21.4050 
 237   0.0000       0.787698        21.4343 
 238   0.0000       0.799091        21.7444 
 239   0.0000       0.804446        21.8901 
 240   0.0000       0.823185        22.4000 
 241   0.0000       0.857762        23.3409 
 242   0.0000       0.868464        23.6321 
 243   0.0000       0.872981        23.7550 
 244   0.0000       0.886651        24.1270 
 245   0.0000       0.887843        24.1594 
 246   0.0000       0.890006        24.2183 
 247   0.0000       0.910812        24.7845 
 248   0.0000       0.914952        24.8971 
 249   0.0000       0.929437        25.2913 
 250   0.0000       0.931723        25.3535 
 251   0.0000       0.949248        25.8303 
 252   0.0000       0.976767        26.5792 
 253   0.0000       0.981950        26.7202 
 254   0.0000       0.996732        27.1225 
 255   0.0000       1.003526        27.3073 
 256   0.0000       1.021226        27.7890 
 257   0.0000       1.023359        27.8470 
 258   0.0000       1.027104        27.9489 
 259   0.0000       1.038973        28.2719 
 260   0.0000       1.044796        28.4304 
 261   0.0000       1.064805        28.9748 
 262   0.0000       1.081403        29.4265 
 263   0.0000       1.083887        29.4941 
 264   0.0000       1.113467        30.2990 
 265   0.0000       1.123125        30.5618 
 266   0.0000       1.124564        30.6009 
 267   0.0000       1.132659        30.8212 
 268   0.0000       1.145396        31.1678 
 269   0.0000       1.161092        31.5949 
 270   0.0000       1.165922        31.7263 
 271   0.0000       1.168706        31.8021 
 272   0.0000       1.174445        31.9583 
 273   0.0000       1.174616        31.9629 
 274   0.0000       1.175224        31.9795 
 275   0.0000       1.185454        32.2578 
 276   0.0000       1.205676        32.8081 
 277   0.0000       1.205781        32.8110 
 278   0.0000       1.216668        33.1072 
 279   0.0000       1.223647        33.2971 
 280   0.0000       1.224829        33.3293 
 281   0.0000       1.226583        33.3770 
 282   0.0000       1.238392        33.6984 
 283   0.0000       1.255548        34.1652 
 284   0.0000       1.272938        34.6384 
 285   0.0000       1.276422        34.7332 
 286   0.0000       1.288000        35.0483 
 287   0.0000       1.288651        35.0660 
 288   0.0000       1.302291        35.4372 
 289   0.0000       1.308937        35.6180 
 290   0.0000       1.310955        35.6729 
 291   0.0000       1.317729        35.8572 
 292   0.0000       1.350524        36.7496 
 293   0.0000       1.358860        36.9765 
 294   0.0000       1.387385        37.7527 
 295   0.0000       1.396827        38.0096 
 296   0.0000       1.414758        38.4975 
 297   0.0000       1.428671        38.8761 
 298   0.0000       1.431170        38.9441 
 299   0.0000       1.458423        39.6857 
 300   0.0000       1.464770        39.8584 
 301   0.0000       1.477250        40.1980 
 302   0.0000       1.484954        40.4076 
 303   0.0000       1.485664        40.4270 
 304   0.0000       1.495853        40.7042 
 305   0.0000       1.511342        41.1257 
 306   0.0000       1.519974        41.3606 
 307   0.0000       1.544993        42.0414 
 308   0.0000       1.568482        42.6806 
 309   0.0000       1.583437        43.0875 
 310   0.0000       1.589248        43.2456 
 311   0.0000       1.597785        43.4779 
 312   0.0000       1.617229        44.0070 
 313   0.0000       1.621292        44.1176 
 314   0.0000       1.630364        44.3645 
 315   0.0000       1.640032        44.6275 
 316   0.0000       1.646670        44.8082 
 317   0.0000       1.648189        44.8495 
 318   0.0000       1.663147        45.2565 
 319   0.0000       1.664460        45.2923 
 320   0.0000       1.666984        45.3609 
 321   0.0000       1.672059        45.4990 
 322   0.0000       1.680467        45.7278 
 323   0.0000       1.685494        45.8646 
 324   0.0000       1.686718        45.8979 
 325   0.0000       1.692832        46.0643 
 326   0.0000       1.696877        46.1744 
 327   0.0000       1.698199        46.2103 
 328   0.0000       1.709264        46.5114 
 329   0.0000       1.710177        46.5363 
 330   0.0000       1.712027        46.5866 
 331   0.0000       1.724996        46.9395 
 332   0.0000       1.727626        47.0111 
 333   0.0000       1.733612        47.1740 
 334   0.0000       1.745217        47.4898 
 335   0.0000       1.748060        47.5671 
 336   0.0000       1.750217        47.6258 
 337   0.0000       1.757572        47.8260 
 338   0.0000       1.763502        47.9873 
 339   0.0000       1.778642        48.3993 
 340   0.0000       1.778923        48.4070 
 341   0.0000       1.782950        48.5165 
 342   0.0000       1.789185        48.6862 
 343   0.0000       1.791529        48.7500 
 344   0.0000       1.807743        49.1912 
 345   0.0000       1.808730        49.2180 
 346   0.0000       1.817275        49.4506 
 347   0.0000       1.834048        49.9070 
 348   0.0000       1.834460        49.9182 
 349   0.0000       1.848643        50.3041 
 350   0.0000       1.864915        50.7469 
 351   0.0000       1.872763        50.9605 
 352   0.0000       1.876410        51.0597 
 353   0.0000       1.901512        51.7428 
 354   0.0000       1.902010        51.7563 
 355   0.0000       1.903706        51.8025 
 356   0.0000       1.907801        51.9139 
 357   0.0000       1.919061        52.2203 
 358   0.0000       1.920805        52.2678 
 359   0.0000       1.931859        52.5686 
 360   0.0000       1.935844        52.6770 
 361   0.0000       1.943334        52.8808 
 362   0.0000       1.953974        53.1703 
 363   0.0000       1.967888        53.5490 
 364   0.0000       1.981727        53.9255 
 365   0.0000       2.006790        54.6075 
 366   0.0000       2.010194        54.7002 
 367   0.0000       2.029118        55.2151 
 368   0.0000       2.048238        55.7354 
 369   0.0000       2.050859        55.8067 
 370   0.0000       2.057153        55.9780 
 371   0.0000       2.063822        56.1594 
 372   0.0000       2.064858        56.1877 
 373   0.0000       2.069414        56.3116 
 374   0.0000       2.104697        57.2717 
 375   0.0000       2.108528        57.3760 
 376   0.0000       2.116164        57.5837 
 377   0.0000       2.124554        57.8121 
 378   0.0000       2.127960        57.9047 
 379   0.0000       2.144000        58.3412 
 380   0.0000       2.164212        58.8912 
 381   0.0000       2.177900        59.2637 
 382   0.0000       2.181636        59.3653 
 383   0.0000       2.187220        59.5173 
 384   0.0000       2.192688        59.6661 
 385   0.0000       2.198970        59.8370 
 386   0.0000       2.204794        59.9955 
 387   0.0000       2.206808        60.0503 
 388   0.0000       2.215648        60.2909 
 389   0.0000       2.221410        60.4476 
[...]
      pz      :     0.036440  p :     0.067230
      px      :     0.017239
      py      :     0.013551
  7 H s       :     0.886253  s :     0.886253
      pz      :     0.017513  p :     0.065512
      px      :     0.012678
      py      :     0.035321
  8 O s       :     3.560177  s :     3.560177
      pz      :     1.452870  p :     4.603624
      px      :     1.665972
      py      :     1.484783
      dz2     :     0.004349  d :     0.029438
      dxz     :     0.006041
      dyz     :     0.007471
      dx2y2   :     0.004303
      dxy     :     0.007274
  9 N s       :     3.096729  s :     3.096729
      pz      :     1.364873  p :     3.888709
      px      :     1.175511
      py      :     1.348326
      dz2     :     0.009369  d :     0.061049
      dxz     :     0.013223
      dyz     :     0.010224
      dx2y2   :     0.014336
      dxy     :     0.013896
 10 C s       :     2.840546  s :     2.840546
      pz      :     0.996728  p :     3.022758
      px      :     1.048095
      py      :     0.977935
      dz2     :     0.032694  d :     0.112914
      dxz     :     0.015037
      dyz     :     0.019887
      dx2y2   :     0.029240
      dxy     :     0.016055
 11 C s       :     2.850393  s :     2.850393
      pz      :     0.978695  p :     2.938621
      px      :     0.925365
      py      :     1.034561
      dz2     :     0.069001  d :     0.185989
      dxz     :     0.034595
      dyz     :     0.047562
      dx2y2   :     0.020964
      dxy     :     0.013867
 12 H s       :     0.880534  s :     0.880534
      pz      :     0.012117  p :     0.068376
      px      :     0.041624
      py      :     0.014635
 13 H s       :     0.890216  s :     0.890216
      pz      :     0.039097  p :     0.066308
      px      :     0.016153
      py      :     0.011057
 14 N s       :     3.222141  s :     3.222141
      pz      :     1.496433  p :     3.835030
      px      :     1.198111
      py      :     1.140487
      dz2     :     0.012017  d :     0.058244
      dxz     :     0.005934
      dyz     :     0.022006
      dx2y2   :     0.010222
      dxy     :     0.008066
 15 C s       :     2.847900  s :     2.847900
      pz      :     1.069913  p :     3.004170
      px      :     0.954839
      py      :     0.979418
      dz2     :     0.033760  d :     0.141545
      dxz     :     0.012915
      dyz     :     0.054210
      dx2y2   :     0.021930
      dxy     :     0.018730
 16 C s       :     2.877874  s :     2.877874
      pz      :     1.037925  p :     3.063983
      px      :     0.969930
      py      :     1.056128
      dz2     :     0.020489  d :     0.082764
      dxz     :     0.004357
      dyz     :     0.032766
      dx2y2   :     0.013718
      dxy     :     0.011434
 17 C s       :     2.874158  s :     2.874158
      pz      :     1.049103  p :     3.053508
      px      :     0.946323
      py      :     1.058081
      dz2     :     0.022407  d :     0.086199
      dxz     :     0.007935
      dyz     :     0.034361
      dx2y2   :     0.011972
      dxy     :     0.009523
 18 C s       :     2.871695  s :     2.871695
      pz      :     1.060090  p :     3.071995
      px      :     0.970001
      py      :     1.041904
      dz2     :     0.029217  d :     0.085614
      dxz     :     0.011769
      dyz     :     0.029656
      dx2y2   :     0.010703
      dxy     :     0.004269
 19 C s       :     2.870913  s :     2.870913
      pz      :     1.052218  p :     3.037052
      px      :     0.934660
      py      :     1.050174
      dz2     :     0.024638  d :     0.086424
      dxz     :     0.005000
      dyz     :     0.028860
      dx2y2   :     0.014961
      dxy     :     0.012964
 20 C s       :     2.870053  s :     2.870053
      pz      :     1.041267  p :     3.112956
      px      :     1.014989
      py      :     1.056700
      dz2     :     0.025692  d :     0.099784
      dxz     :     0.009188
      dyz     :     0.039958
      dx2y2   :     0.013931
      dxy     :     0.011015
 21 C s       :     2.840957  s :     2.840957
      pz      :     1.026589  p :     2.853152
      px      :     0.876401
      py      :     0.950163
      dz2     :     0.065320  d :     0.252340
      dxz     :     0.041753
      dyz     :     0.102930
      dx2y2   :     0.023622
      dxy     :     0.018715
 22 N s       :     3.071649  s :     3.071649
      pz      :     1.171876  p :     3.829397
      px      :     1.477540
      py      :     1.179980
      dz2     :     0.014509  d :     0.053771
      dxz     :     0.005815
      dyz     :     0.021722
      dx2y2   :     0.007635
      dxy     :     0.004090
 23 O s       :     3.555235  s :     3.555235
      pz      :     1.452758  p :     4.595709
      px      :     1.406283
      py      :     1.736667
      dz2     :     0.015594  d :     0.030005
      dxz     :     0.006745
      dyz     :     0.006934
      dx2y2   :     0.000359
      dxy     :     0.000373
 24 C s       :     2.848073  s :     2.848073
      pz      :     1.078537  p :     3.012723
      px      :     0.875666
      py      :     1.058520
      dz2     :     0.023814  d :     0.109177
      dxz     :     0.019234
      dyz     :     0.012337
      dx2y2   :     0.034386
      dxy     :     0.019406
 25 C s       :     2.845488  s :     2.845488
      pz      :     1.042797  p :     3.110823
      px      :     1.012971
      py      :     1.055054
      dz2     :     0.020876  d :     0.083756
      dxz     :     0.013844
      dyz     :     0.012332
      dx2y2   :     0.021326
      dxy     :     0.015377
 26 H s       :     0.895731  s :     0.895731
      pz      :     0.041164  p :     0.068431
      px      :     0.012135
      py      :     0.015132
 27 H s       :     0.907598  s :     0.907598
      pz      :     0.014703  p :     0.065223
      px      :     0.012667
      py      :     0.037853
 28 C s       :     2.861372  s :     2.861372
      pz      :     1.031444  p :     3.065739
      px      :     1.027833
      py      :     1.006462
      dz2     :     0.019218  d :     0.103151
      dxz     :     0.026199
      dyz     :     0.014890
      dx2y2   :     0.021695
      dxy     :     0.021148
 29 H s       :     0.906385  s :     0.906385
      pz      :     0.036221  p :     0.064732
      px      :     0.014459
      py      :     0.014052
 30 H s       :     0.892538  s :     0.892538
      pz      :     0.014477  p :     0.066321
      px      :     0.015697
      py      :     0.036147
 31 C s       :     2.871551  s :     2.871551
      pz      :     1.015776  p :     3.064171
      px      :     1.047210
      py      :     1.001185
      dz2     :     0.013281  d :     0.085731
      dxz     :     0.024663
      dyz     :     0.010385
      dx2y2   :     0.018093
      dxy     :     0.019310
 32 C s       :     2.875773  s :     2.875773
      pz      :     1.016288  p :     3.082767
      px      :     1.062313
      py      :     1.004166
      dz2     :     0.011912  d :     0.085480
      dxz     :     0.025025
      dyz     :     0.009919
      dx2y2   :     0.018018
      dxy     :     0.020607
 33 C s       :     2.916002  s :     2.916002
      pz      :     1.089036  p :     3.089166
      px      :     0.927132
      py      :     1.072999
      dz2     :     0.021954  d :     0.117206
      dxz     :     0.029299
      dyz     :     0.014862
      dx2y2   :     0.027278
      dxy     :     0.023813
 34 Cls       :     5.766197  s :     5.766197
      pz      :     3.907047  p :    11.079861
      px      :     3.266985
      py      :     3.905830
      dz2     :     0.006004  d :     0.040436
      dxz     :     0.008032
      dyz     :     0.000219
      dx2y2   :     0.017636
      dxy     :     0.008546
 35 C s       :     2.875665  s :     2.875665
      pz      :     1.018606  p :     3.084817
      px      :     1.060598
      py      :     1.005612
      dz2     :     0.013286  d :     0.085402
      dxz     :     0.024936
      dyz     :     0.010594
      dx2y2   :     0.016963
      dxy     :     0.019623
 36 C s       :     2.871346  s :     2.871346
      pz      :     1.016986  p :     3.070418
      px      :     1.049650
      py      :     1.003782
      dz2     :     0.012568  d :     0.086219
      dxz     :     0.023952
      dyz     :     0.010099
      dx2y2   :     0.019472
      dxy     :     0.020128
 37 H s       :     0.785198  s :     0.785198
      pz      :     0.042069  p :     0.123984
      px      :     0.032619
      py      :     0.049297
 38 H s       :     0.893972  s :     0.893972
      pz      :     0.039294  p :     0.067586
      px      :     0.014083
      py      :     0.014210
 39 H s       :     0.896879  s :     0.896879
      pz      :     0.028011  p :     0.065749
      px      :     0.013337
      py      :     0.024401
 40 H s       :     0.897074  s :     0.897074
      pz      :     0.012044  p :     0.066219
      px      :     0.013932
      py      :     0.040243
 41 H s       :     0.888369  s :     0.888369
      pz      :     0.042514  p :     0.068765
      px      :     0.013060
      py      :     0.013190
 42 H s       :     0.893366  s :     0.893366
      pz      :     0.024383  p :     0.066631
      px      :     0.019551
      py      :     0.022697
 43 H s       :     0.893985  s :     0.893985
      pz      :     0.028265  p :     0.067196
      px      :     0.017439
      py      :     0.021492
 44 H s       :     0.900709  s :     0.900709
      pz      :     0.028171  p :     0.066120
      px      :     0.016624
      py      :     0.021325
 45 H s       :     0.894760  s :     0.894760
      pz      :     0.024345  p :     0.067207
      px      :     0.020211
      py      :     0.022651


                      *****************************
                      * MAYER POPULATION ANALYSIS *
                      *****************************

  NA   - Mulliken gross atomic population
  ZA   - Total nuclear charge
  QA   - Mulliken gross atomic charge
  VA   - Mayer's total valence
  BVA  - Mayer's bonded valence
  FA   - Mayer's free valence

  ATOM       NA         ZA         QA         VA         BVA        FA
  0 C      6.0843     6.0000    -0.0843     4.0299     4.0299    -0.0000
  1 C      6.0244     6.0000    -0.0244     3.9751     3.9751    -0.0000
  2 H      0.9488     1.0000     0.0512     0.9830     0.9830    -0.0000
  3 H      0.9673     1.0000     0.0327     1.0039     1.0039    -0.0000
  4 H      0.9455     1.0000     0.0545     0.9838     0.9838    -0.0000
  5 C      5.9448     6.0000     0.0552     4.2670     4.2670    -0.0000
  6 H      0.9552     1.0000     0.0448     0.9830     0.9830    -0.0000
  7 H      0.9543     1.0000     0.0457     1.0078     1.0078    -0.0000
  8 O      8.2234     8.0000    -0.2234     2.2952     2.2952    -0.0000
  9 N      7.2799     7.0000    -0.2799     3.2110     3.2110    -0.0000
 10 C      5.7741     6.0000     0.2259     3.8166     3.8166    -0.0000
 11 C      6.1338     6.0000    -0.1338     4.2291     4.2291    -0.0000
 12 H      0.9349     1.0000     0.0651     1.0119     1.0119    -0.0000
 13 H      0.9559     1.0000     0.0441     1.0209     1.0209    -0.0000
 14 N      7.0763     7.0000    -0.0763     3.1490     3.1490    -0.0000
 15 C      5.9547     6.0000     0.0453     4.0515     4.0515    -0.0000
 16 C      6.0102     6.0000    -0.0102     3.8017     3.8017    -0.0000
 17 C      5.9914     6.0000     0.0086     3.7803     3.7803    -0.0000
 18 C      5.9821     6.0000     0.0179     3.7729     3.7729    -0.0000
 19 C      6.0319     6.0000    -0.0319     3.8727     3.8727    -0.0000
 20 C      6.0516     6.0000    -0.0516     3.6982     3.6982    -0.0000
 21 C      5.9007     6.0000     0.0993     4.2642     4.2642    -0.0000
 22 N      7.0595     7.0000    -0.0595     3.2944     3.2944    -0.0000
 23 O      8.1736     8.0000    -0.1736     2.3757     2.3757    -0.0000
 24 C      5.9120     6.0000     0.0880     4.0519     4.0519    -0.0000
 25 C      5.9470     6.0000     0.0530     3.9993     3.9993    -0.0000
 26 H      0.9543     1.0000     0.0457     1.0173     1.0173    -0.0000
 27 H      0.9675     1.0000     0.0325     0.9939     0.9939    -0.0000
 28 C      6.0271     6.0000    -0.0271     3.9633     3.9633    -0.0000
 29 H      0.9851     1.0000     0.0149     0.9924     0.9924    -0.0000
 30 H      0.9607     1.0000     0.0393     1.0028     1.0028    -0.0000
 31 C      6.0389     6.0000    -0.0389     3.8582     3.8582    -0.0000
 32 C      5.9693     6.0000     0.0307     3.8826     3.8826    -0.0000
 33 C      5.9794     6.0000     0.0206     3.8742     3.8742    -0.0000
 34 Cl    17.0891    17.0000    -0.0891     1.1553     1.1553    -0.0000
 35 C      5.9709     6.0000     0.0291     3.8886     3.8886    -0.0000
 36 C      6.0366     6.0000    -0.0366     3.8557     3.8557    -0.0000
 37 H      0.8570     1.0000     0.1430     1.0340     1.0340    -0.0000
 38 H      1.0069     1.0000    -0.0069     1.0014     1.0014    -0.0000
 39 H      0.9869     1.0000     0.0131     0.9791     0.9791    -0.0000
 40 H      0.9881     1.0000     0.0119     0.9803     0.9803    -0.0000
 41 H      0.9831     1.0000     0.0169     1.0031     1.0031    -0.0000
 42 H      0.9849     1.0000     0.0151     0.9906     0.9906    -0.0000
 43 H      0.9960     1.0000     0.0040     0.9974     0.9974    -0.0000
 44 H      1.0029     1.0000    -0.0029     0.9873     0.9873    -0.0000
 45 H      0.9979     1.0000     0.0021     0.9974     0.9974    -0.0000

  Mayer bond orders larger than 0.100000
B(  0-C ,  1-C ) :   1.0976 B(  0-C ,  2-H ) :   0.9595 B(  0-C ,  3-H ) :   0.9622 
B(  0-C ,  4-H ) :   0.9623 B(  1-C ,  5-C ) :   1.0012 B(  1-C ,  6-H ) :   0.9176 
B(  1-C ,  7-H ) :   0.9118 B(  5-C ,  8-O ) :   2.0240 B(  5-C ,  9-N ) :   1.1029 
B(  9-N , 10-C ) :   0.9966 B(  9-N , 24-C ) :   0.9584 B( 10-C , 11-C ) :   0.9809 
B( 10-C , 12-H ) :   0.8964 B( 10-C , 13-H ) :   0.8980 B( 11-C , 14-N ) :   1.7349 
B( 11-C , 22-N ) :   1.2141 B( 14-N , 15-C ) :   1.2557 B( 15-C , 16-C ) :   1.3202 
B( 15-C , 20-C ) :   1.2705 B( 16-C , 17-C ) :   1.3884 B( 16-C , 38-H ) :   0.9761 
B( 17-C , 18-C ) :   1.3135 B( 17-C , 39-H ) :   0.9735 B( 18-C , 19-C ) :   1.3852 
B( 18-C , 40-H ) :   0.9782 B( 19-C , 20-C ) :   1.3474 B( 19-C , 41-H ) :   0.9783 
B( 20-C , 21-C ) :   0.9685 B( 21-C , 22-N ) :   1.0565 B( 21-C , 23-O ) :   2.1589 
B( 22-N , 37-H ) :   0.8647 B( 24-C , 25-C ) :   1.0968 B( 24-C , 26-H ) :   0.9176 
B( 24-C , 27-H ) :   0.9292 B( 25-C , 28-C ) :   1.0613 B( 25-C , 29-H ) :   0.9116 
B( 25-C , 30-H ) :   0.9043 B( 28-C , 31-C ) :   1.3744 B( 28-C , 36-C ) :   1.3779 
B( 31-C , 32-C ) :   1.3680 B( 31-C , 42-H ) :   0.9721 B( 32-C , 33-C ) :   1.3787 
B( 32-C , 43-H ) :   0.9761 B( 33-C , 34-Cl) :   0.9823 B( 33-C , 35-C ) :   1.3854 
B( 35-C , 36-C ) :   1.3648 B( 35-C , 45-H ) :   0.9751 B( 36-C , 44-H ) :   0.9716 


-------
TIMINGS
-------

Total SCF time: 0 days 0 hours 0 min 27 sec 

Total time                  ....      27.498 sec
Sum of individual times     ....      26.951 sec  ( 98.0%)

Fock matrix formation       ....      24.216 sec  ( 88.1%)
  Split-RI-J                ....      11.249 sec  ( 46.5% of F)
  XC integration            ....      12.921 sec  ( 53.4% of F)
    Basis function eval.    ....       5.585 sec  ( 43.2% of XC)
    Density eval.           ....       3.195 sec  ( 24.7% of XC)
    XC-Functional eval.     ....       0.571 sec  (  4.4% of XC)
    XC-Potential eval.      ....       2.987 sec  ( 23.1% of XC)
Diagonalization             ....       0.019 sec  (  0.1%)
Density matrix formation    ....       0.040 sec  (  0.1%)
Population analysis         ....       0.061 sec  (  0.2%)
Initial guess               ....       0.027 sec  (  0.1%)
Orbital Transformation      ....       0.000 sec  (  0.0%)
Orbital Orthonormalization  ....       0.018 sec  (  0.1%)
DIIS solution               ....       0.002 sec  (  0.0%)
SOSCF solution              ....       0.086 sec  (  0.3%)
Grid generation             ....       2.499 sec  (  9.1%)

Maximum memory used throughout the entire SCF-calculation: 162.8 MB


-------------------------------------------------------------------------------
                          DFT DISPERSION CORRECTION                            
                                                                               
                              DFTD3 V3.1  Rev 1                                
                          USING Becke-Johnson damping                          
-------------------------------------------------------------------------------
The BP86 functional is recognized
Active option DFTDOPT                   ...         4   

molecular C6(AA) [au] = 25737.929740 


            DFT-D V3
 parameters
 s6 scaling factor         :     1.0000 
 a1 scaling factor         :     0.3946 
 s8 scaling factor         :     3.2822 
 a2 scaling factor         :     4.8516 
 ad hoc parameters k1-k3   :    16.0000     1.3333    -4.0000 

 Edisp/kcal,au: -60.795554218880  -0.096883872271 
 E6   /kcal   : -23.243307608 
 E8   /kcal   : -37.552246611 
 % E8         :  61.768080074 

-------------------------   ----------------
Dispersion correction           -0.096883872
-------------------------   ----------------


-------------------------   --------------------
FINAL SINGLE POINT ENERGY     -1548.366439132998
-------------------------   --------------------

                                *** OPTIMIZATION RUN DONE ***

                            ***************************************
                            *     ORCA property calculations      *
                            ***************************************

                                    ---------------------
                                    Active property flags
                                    ---------------------
   (+) Dipole Moment


------------------------------------------------------------------------------
                       ORCA ELECTRIC PROPERTIES CALCULATION
------------------------------------------------------------------------------

Dipole Moment Calculation                       ... on
Quadrupole Moment Calculation                   ... off
Polarizability Calculation                      ... off
GBWName                                         ... input.gbw
Electron density                                ... input.scfp
The origin for moment calculation is the CENTER OF MASS  = (-0.878455,  0.704355 -0.126261)

-------------
DIPOLE MOMENT
-------------
                                X             Y             Z
Electronic contribution:     27.98405      -2.07416       0.37353
Nuclear contribution   :    -29.13236       1.89434       0.80787
                        -----------------------------------------
Total Dipole Moment    :     -1.14831      -0.17983       1.18140
                        -----------------------------------------
Magnitude (a.u.)       :      1.65730
Magnitude (Debye)      :      4.21252



--------------------
Rotational spectrum 
--------------------
 
Rotational constants in cm-1:     0.007612     0.002995     0.002392 
Rotational constants in MHz :   228.213232    89.780294    71.695404 

 Dipole components along the rotational axes: 
x,y,z [a.u.] :    -0.982013     0.189177     1.321555 
x,y,z [Debye]:    -2.496078     0.480850     3.359125 

 

Timings for individual modules:

Sum of individual times         ...     3539.540 sec (=  58.992 min)
GTO integral calculation        ...       18.214 sec (=   0.304 min)   0.5 %
SCF iterations                  ...     2318.808 sec (=  38.647 min)  65.5 %
SCF Gradient evaluation         ...     1192.544 sec (=  19.876 min)  33.7 %
Geometry relaxation             ...        9.974 sec (=   0.166 min)   0.3 %
                             ****ORCA TERMINATED NORMALLY****
TOTAL RUN TIME: 0 days 0 hours 59 minutes 13 seconds 219 msec
