
                                 *****************
                                 * O   R   C   A *
                                 *****************

                                            #,                                       
                                            ###                                      
                                            ####                                     
                                            #####                                    
                                            ######                                   
                                           ########,                                 
                                     ,,################,,,,,                         
                               ,,#################################,,                 
                          ,,##########################################,,             
                       ,#########################################, ''#####,          
                    ,#############################################,,   '####,        
                  ,##################################################,,,,####,       
                ,###########''''           ''''###############################       
              ,#####''   ,,,,##########,,,,          '''####'''          '####       
            ,##' ,,,,###########################,,,                        '##       
           ' ,,###''''                  '''############,,,                           
         ,,##''                                '''############,,,,        ,,,,,,###''
      ,#''                                            '''#######################'''  
     '                                                          ''''####''''         
             ,#######,   #######,   ,#######,      ##                                
            ,#'     '#,  ##    ##  ,#'     '#,    #''#        ######   ,####,        
            ##       ##  ##   ,#'  ##            #'  '#       #        #'  '#        
            ##       ##  #######   ##           ,######,      #####,   #    #        
            '#,     ,#'  ##    ##  '#,     ,#' ,#      #,         ##   #,  ,#        
             '#######'   ##     ##  '#######'  #'      '#     #####' # '####'        



                  #######################################################
                  #                        -***-                        #
                  #          Department of theory and spectroscopy      #
                  #    Directorship and core code : Frank Neese         #
                  #        Max Planck Institute fuer Kohlenforschung    #
                  #                Kaiser Wilhelm Platz 1               #
                  #                 D-45470 Muelheim/Ruhr               #
                  #                      Germany                        #
                  #                                                     #
                  #                  All rights reserved                #
                  #                        -***-                        #
                  #######################################################


                         Program Version 5.0.4 -  RELEASE  -


 With contributions from (in alphabetic order):
   Daniel Aravena         : Magnetic Suceptibility
   Michael Atanasov       : Ab Initio Ligand Field Theory (pilot matlab implementation)
   Alexander A. Auer      : GIAO ZORA, VPT2 properties, NMR spectrum
   Ute Becker             : Parallelization
   Giovanni Bistoni       : ED, misc. LED, open-shell LED, HFLD
   Martin Brehm           : Molecular dynamics
   Dmytro Bykov           : SCF Hessian
   Vijay G. Chilkuri      : MRCI spin determinant printing, contributions to CSF-ICE
   Dipayan Datta          : RHF DLPNO-CCSD density
   Achintya Kumar Dutta   : EOM-CC, STEOM-CC
   Dmitry Ganyushin       : Spin-Orbit,Spin-Spin,Magnetic field MRCI
   Miquel Garcia          : C-PCM and meta-GGA Hessian, CC/C-PCM, Gaussian charge scheme
   Yang Guo               : DLPNO-NEVPT2, F12-NEVPT2, CIM, IAO-localization
   Andreas Hansen         : Spin unrestricted coupled pair/coupled cluster methods
   Benjamin Helmich-Paris : MC-RPA, TRAH-SCF, COSX integrals
   Lee Huntington         : MR-EOM, pCC
   Robert Izsak           : Overlap fitted RIJCOSX, COSX-SCS-MP3, EOM
   Marcus Kettner         : VPT2
   Christian Kollmar      : KDIIS, OOCD, Brueckner-CCSD(T), CCSD density, CASPT2, CASPT2-K
   Simone Kossmann        : Meta GGA functionals, TD-DFT gradient, OOMP2, MP2 Hessian
   Martin Krupicka        : Initial AUTO-CI
   Lucas Lang             : DCDCAS
   Marvin Lechner         : AUTO-CI (C++ implementation), FIC-MRCC
   Dagmar Lenk            : GEPOL surface, SMD
   Dimitrios Liakos       : Extrapolation schemes; Compound Job, initial MDCI parallelization
   Dimitrios Manganas     : Further ROCIS development; embedding schemes
   Dimitrios Pantazis     : SARC Basis sets
   Anastasios Papadopoulos: AUTO-CI, single reference methods and gradients
   Taras Petrenko         : DFT Hessian,TD-DFT gradient, ASA, ECA, R-Raman, ABS, FL, XAS/XES, NRVS
   Peter Pinski           : DLPNO-MP2, DLPNO-MP2 Gradient
   Christoph Reimann      : Effective Core Potentials
   Marius Retegan         : Local ZFS, SOC
   Christoph Riplinger    : Optimizer, TS searches, QM/MM, DLPNO-CCSD(T), (RO)-DLPNO pert. Triples
   Tobias Risthaus        : Range-separated hybrids, TD-DFT gradient, RPA, STAB
   Michael Roemelt        : Original ROCIS implementation
   Masaaki Saitow         : Open-shell DLPNO-CCSD energy and density
   Barbara Sandhoefer     : DKH picture change effects
   Avijit Sen             : IP-ROCIS
   Kantharuban Sivalingam : CASSCF convergence, NEVPT2, FIC-MRCI
   Bernardo de Souza      : ESD, SOC TD-DFT
   Georgi Stoychev        : AutoAux, RI-MP2 NMR, DLPNO-MP2 response
   Willem Van den Heuvel  : Paramagnetic NMR
   Boris Wezisla          : Elementary symmetry handling
   Frank Wennmohs         : Technical directorship


 We gratefully acknowledge several colleagues who have allowed us to
 interface, adapt or use parts of their codes:
   Stefan Grimme, W. Hujo, H. Kruse, P. Pracht,  : VdW corrections, initial TS optimization,
                  C. Bannwarth, S. Ehlert          DFT functionals, gCP, sTDA/sTD-DF
   Ed Valeev, F. Pavosevic, A. Kumar             : LibInt (2-el integral package), F12 methods
   Garnet Chan, S. Sharma, J. Yang, R. Olivares  : DMRG
   Ulf Ekstrom                                   : XCFun DFT Library
   Mihaly Kallay                                 : mrcc  (arbitrary order and MRCC methods)
   Jiri Pittner, Ondrej Demel                    : Mk-CCSD
   Frank Weinhold                                : gennbo (NPA and NBO analysis)
   Christopher J. Cramer and Donald G. Truhlar   : smd solvation model
   Lars Goerigk                                  : TD-DFT with DH, B97 family of functionals
   V. Asgeirsson, H. Jonsson                     : NEB implementation
   FAccTs GmbH                                   : IRC, NEB, NEB-TS, DLPNO-Multilevel, CI-OPT
                                                   MM, QMMM, 2- and 3-layer-ONIOM, Crystal-QMMM,
                                                   LR-CPCM, SF, NACMEs, symmetry and pop. for TD-DFT,
                                                   nearIR, NL-DFT gradient (VV10), updates on ESD,
                                                   ML-optimized integration grids
   S Lehtola, MJT Oliveira, MAL Marques          : LibXC Library
   Liviu Ungur et al                             : ANISO software


 Your calculation uses the libint2 library for the computation of 2-el integrals
 For citations please refer to: http://libint.valeyev.net

 Your ORCA version has been built with support for libXC version: 5.1.0
 For citations please refer to: https://tddft.org/programs/libxc/

 This ORCA versions uses:
   CBLAS   interface :  Fast vector & matrix operations
   LAPACKE interface :  Fast linear algebra routines
   SCALAPACK package :  Parallel linear algebra routines
   Shared memory     :  Shared parallel matrices


Your calculation utilizes the atom-pairwise dispersion correction
with the Becke-Johnson damping scheme (D3BJ)
Cite in your paper:
S.Grimme, S.Ehrlich, L.Goerigk, J Comput Chem, (2011), 32, 1456–1465 
S.Grimme, J.Antony, S.Ehrlich and H.Krieg, J.Chem.Phys., 132, (2010), 154104 
   

================================================================================

----- Orbital basis set information -----
Your calculation utilizes the basis: def2-SVP
   F. Weigend and R. Ahlrichs, Phys. Chem. Chem. Phys. 7, 3297 (2005).

----- AuxJ basis set information -----
Your calculation utilizes the auxiliary basis: def2/J
   F. Weigend, Phys. Chem. Chem. Phys. 8, 1057 (2006).

================================================================================
                                        WARNINGS
                       Please study these warnings very carefully!
================================================================================


WARNING: Geometry Optimization
  ===> : Switching off AutoStart
         For restart on a previous wavefunction, please use MOREAD

INFO   : the flag for use of the SHARK integral package has been found!

================================================================================
                                       INPUT FILE
================================================================================
NAME = input.inp
|  1> %pal nprocs 1 END
|  2> %MaxCore 3000
|  3> 
|  4> !BP86 D3BJ DEF2-SVP TightSCF
|  5> !OPT
|  6> 
|  7> * xyz 0 1 
|  8> C         -1.89136        1.78589        0.24081
|  9> C         -0.45341        1.70721        0.77384
| 10> H         -1.96813        2.57000       -0.54198
| 11> H         -2.59476        2.03864        1.06279
| 12> H         -2.20472        0.81669       -0.20100
| 13> C         -0.33675        0.64105        1.87721
| 14> S          0.01945        3.31935        1.51508
| 15> C          0.87913        3.75772       -0.01249
| 16> C          1.45355        2.47144       -0.58751
| 17> N          0.48630        1.42872       -0.31021
| 18> C          0.48301        0.24988       -1.00101
| 19> O          1.29412        0.04012       -1.89066
| 20> C          2.79273        2.10661        0.02350
| 21> O          2.86897        1.91221        1.22899
| 22> N          3.89712        1.99426       -0.76805
| 23> C          5.21803        1.64479       -0.26329
| 24> C          6.19246        2.80528       -0.56712
| 25> C          7.60677        2.69678       -0.02223
| 26> C          8.06081        1.63698        0.79185
| 27> C          9.37984        1.61388        1.25616
| 28> C         10.26137        2.64241        0.92013
| 29> C          9.82513        3.69948        0.12058
| 30> C          8.50776        3.72779       -0.34574
| 31> C          5.65574        0.35687       -0.92024
| 32> O          5.78049        0.30718       -2.13682
| 33> O          5.88416       -0.73921       -0.14997
| 34> C          6.28927       -1.97688       -0.61108
| 35> H          1.66006        4.53780        0.11384
| 36> H          0.08974        4.14751       -0.69141
| 37> H          1.56363        2.63942       -1.68253
| 38> H          3.80032        2.16418       -1.78148
| 39> H          5.75633        3.73814       -0.14661
| 40> H          6.24993        2.92747       -1.67168
| 41> H          5.18376        1.49685        0.83807
| 42> H         -0.24443       -0.52180       -0.77407
| 43> H          7.41422        0.82699        1.08527
| 44> H         11.28136        2.62155        1.28160
| 45> H          9.71827        0.79684        1.88039
| 46> H          8.18810        4.55736       -0.96491
| 47> H         10.50772        4.49862       -0.13826
| 48> H          0.70406        0.59258        2.26121
| 49> H         -0.61930       -0.36448        1.50291
| 50> H         -1.01144        0.88899        2.72458
| 51> H          5.53144       -2.73591       -0.32763
| 52> H          7.25599       -2.24199       -0.13558
| 53> H          6.41987       -2.00169       -1.71404
| 54> **                         ****END OF INPUT****
================================================================================

                       *****************************
                       * Geometry Optimization Run *
                       *****************************

Geometry optimization settings:
Update method            Update   .... BFGS
Choice of coordinates    CoordSys .... Z-matrix Internals
Initial Hessian          InHess   .... Almoef's Model

Convergence Tolerances:
Energy Change            TolE     ....  5.0000e-06 Eh
Max. Gradient            TolMAXG  ....  3.0000e-04 Eh/bohr
RMS Gradient             TolRMSG  ....  1.0000e-04 Eh/bohr
Max. Displacement        TolMAXD  ....  4.0000e-03 bohr
RMS Displacement         TolRMSD  ....  2.0000e-03 bohr
Strict Convergence                ....  False
------------------------------------------------------------------------------
                        ORCA OPTIMIZATION COORDINATE SETUP
------------------------------------------------------------------------------

The optimization will be done in new redundant internal coordinates
Making redundant internal coordinates   ...  (new redundants) done
Evaluating the initial hessian          ...  (Almloef) done
Evaluating the coordinates              ...  done
Calculating the B-matrix                .... done
Calculating the G-matrix                .... done
Diagonalizing the G-matrix              .... done
Small eigenvalue found = 2.165e-03
Small eigenvalue found = 4.290e-03
Small eigenvalue found = 5.993e-03
Small eigenvalue found = 6.708e-03
Small eigenvalue found = 1.593e-02
Small eigenvalue found = 1.889e-02
Small eigenvalue found = 2.274e-02
The first mode is                       ....  113
The number of degrees of freedom        ....  132

    -----------------------------------------------------------------
                    Redundant Internal Coordinates


    -----------------------------------------------------------------
         Definition                    Initial Value    Approx d2E/dq
    -----------------------------------------------------------------
      1. B(C   1,C   0)                  1.5356         0.365992   
      2. B(H   2,C   0)                  1.1106         0.333827   
      3. B(H   3,C   0)                  1.1110         0.333373   
      4. B(H   4,C   0)                  1.1103         0.334237   
      5. B(C   5,C   1)                  1.5387         0.361766   
      6. B(S   6,C   1)                  1.8363         0.326926   
      7. B(C   7,S   6)                  1.8068         0.364298   
      8. B(C   8,C   7)                  1.5216         0.385349   
      9. B(N   9,C   8)                  1.4490         0.450477   
     10. B(N   9,C   1)                  1.4614         0.430442   
     11. B(C  10,N   9)                  1.3663         0.610417   
     12. B(O  11,C  10)                  1.2220         1.037167   
     13. B(C  12,C   8)                  1.5165         0.392538   
     14. B(O  13,C  12)                  1.2234         1.031830   
     15. B(N  14,C  12)                  1.3634         0.617048   
     16. B(C  15,N  14)                  1.4566         0.438129   
     17. B(C  16,C  15)                  1.5455         0.352900   
     18. B(C  17,C  16)                  1.5195         0.388233   
     19. B(C  18,C  17)                  1.4114         0.577555   
     20. B(C  19,C  18)                  1.3986         0.605465   
     21. B(C  20,C  19)                  1.3957         0.611925   
     22. B(C  21,C  20)                  1.3953         0.612652   
     23. B(C  22,C  21)                  1.3978         0.607247   
     24. B(C  22,C  17)                  1.4069         0.587143   
     25. B(C  23,C  15)                  1.5106         0.401171   
     26. B(O  24,C  23)                  1.2240         1.029837   
     27. B(O  25,C  23)                  1.3590         0.627094   
     28. B(C  26,O  25)                  1.3815         0.577330   
     29. B(H  27,C   7)                  1.1110         0.333356   
     30. B(H  28,C   7)                  1.1118         0.332438   
     31. B(H  29,C   8)                  1.1133         0.330577   
     32. B(H  30,N  14)                  1.0321         0.398928   
     33. B(H  31,C  16)                  1.1123         0.331746   
     34. B(H  32,C  16)                  1.1128         0.331188   
     35. B(H  33,C  15)                  1.1118         0.332410   
     36. B(H  34,C  10)                  1.0845         0.367437   
     37. B(H  35,C  18)                  1.0772         0.377503   
     38. B(H  36,C  20)                  1.0823         0.370367   
     39. B(H  37,C  19)                  1.0825         0.370193   
     40. B(H  38,C  22)                  1.0834         0.368947   
     41. B(H  39,C  21)                  1.0824         0.370319   
     42. B(H  40,C   5)                  1.1104         0.334043   
     43. B(H  41,C   5)                  1.1095         0.335187   
     44. B(H  42,C   5)                  1.1112         0.333146   
     45. B(H  43,C  26)                  1.1094         0.335325   
     46. B(H  44,C  26)                  1.1095         0.335239   
     47. B(H  45,C  26)                  1.1109         0.333435   
     48. A(H   2,C   0,H   3)          108.4870         0.283975   
     49. A(C   1,C   0,H   2)          110.2160         0.319247   
     50. A(C   1,C   0,H   4)          110.9583         0.319311   
     51. A(H   3,C   0,H   4)          108.3191         0.284029   
     52. A(C   1,C   0,H   3)          110.3473         0.319176   
     53. A(H   2,C   0,H   4)          108.4406         0.284089   
     54. A(C   0,C   1,C   5)          110.8180         0.360103   
     55. A(C   5,C   1,S   6)          107.4170         0.371817   
     56. A(S   6,C   1,N   9)          107.5262         0.380744   
     57. A(C   0,C   1,S   6)          109.6497         0.372561   
     58. A(C   0,C   1,N   9)          110.7570         0.368661   
     59. A(C   5,C   1,N   9)          110.5553         0.367926   
     60. A(H  40,C   5,H  41)          108.4086         0.284243   
     61. A(C   1,C   5,H  42)          110.2540         0.318536   
     62. A(C   1,C   5,H  41)          111.5140         0.318854   
     63. A(C   1,C   5,H  40)          110.4426         0.318676   
     64. A(H  41,C   5,H  42)          107.7495         0.284124   
     65. A(H  40,C   5,H  42)          108.3692         0.283973   
     66. A(C   1,S   6,C   7)           89.6706         0.392150   
     67. A(H  27,C   7,H  28)          108.8052         0.283789   
     68. A(S   6,C   7,H  28)          105.2789         0.334920   
     69. A(C   8,C   7,H  27)          111.7884         0.321874   
     70. A(S   6,C   7,H  27)          114.1202         0.335074   
     71. A(C   8,C   7,H  28)          109.4914         0.321729   
     72. A(S   6,C   7,C   8)          107.0990         0.383003   
     73. A(C   7,C   8,N   9)          106.4992         0.374870   
     74. A(C   7,C   8,H  29)          106.3491         0.321433   
     75. A(N   9,C   8,H  29)          111.2727         0.327814   
     76. A(N   9,C   8,C  12)          109.8303         0.376069   
     77. A(C   7,C   8,C  12)          112.6117         0.368399   
     78. A(C  12,C   8,H  29)          110.1986         0.322408   
     79. A(C   8,N   9,C  10)          121.7153         0.403628   
     80. A(C   1,N   9,C  10)          122.5402         0.400405   
     81. A(C   1,N   9,C   8)          115.7242         0.379709   
     82. A(O  11,C  10,H  34)          118.3859         0.384410   
     83. A(N   9,C  10,H  34)          120.6454         0.351010   
     84. A(N   9,C  10,O  11)          120.9683         0.468989   
     85. A(O  13,C  12,N  14)          120.5627         0.469475   
     86. A(C   8,C  12,N  14)          120.0804         0.397258   
     87. A(C   8,C  12,O  13)          119.3567         0.435301   
     88. A(C  12,N  14,H  30)          118.7193         0.353467   
     89. A(C  12,N  14,C  15)          123.5833         0.402420   
     90. A(C  15,N  14,H  30)          117.6974         0.333744   
     91. A(C  16,C  15,H  33)          108.3065         0.317137   
     92. A(N  14,C  15,H  33)          110.3195         0.326614   
     93. A(N  14,C  15,C  16)          108.8736         0.367478   
     94. A(C  16,C  15,C  23)          111.8395         0.364243   
     95. A(N  14,C  15,C  23)          108.4583         0.375677   
     96. A(C  23,C  15,H  33)          109.0443         0.323854   
     97. A(H  31,C  16,H  32)          107.6627         0.283409   
     98. A(C  17,C  16,H  32)          108.4039         0.321923   
     99. A(C  15,C  16,H  32)          108.0683         0.316947   
    100. A(C  15,C  16,C  17)          117.5633         0.362209   
    101. A(C  17,C  16,H  31)          106.8136         0.322012   
    102. A(C  15,C  16,H  31)          107.9511         0.317034   
    103. A(C  16,C  17,C  18)          124.0467         0.394434   
    104. A(C  18,C  17,C  22)          118.4814         0.424412   
    105. A(C  16,C  17,C  22)          117.4695         0.395574   
    106. A(C  19,C  18,H  35)          117.5994         0.354315   
    107. A(C  17,C  18,H  35)          121.9149         0.351496   
    108. A(C  17,C  18,C  19)          120.4837         0.426753   
    109. A(C  18,C  19,C  20)          120.2384         0.431201   
    110. A(C  20,C  19,H  37)          119.8419         0.353778   
    111. A(C  18,C  19,H  37)          119.9196         0.353143   
    112. A(C  19,C  20,C  21)          119.9194         0.432116   
    113. A(C  21,C  20,H  36)          120.0395         0.353878   
    114. A(C  19,C  20,H  36)          120.0409         0.353807   
    115. A(C  22,C  21,H  39)          119.9757         0.353339   
    116. A(C  20,C  21,H  39)          119.9467         0.353870   
    117. A(C  20,C  21,C  22)          120.0776         0.431521   
    118. A(C  17,C  22,C  21)          120.7981         0.428240   
    119. A(C  21,C  22,H  38)          118.9641         0.353117   
    120. A(C  17,C  22,H  38)          120.2377         0.351112   
    121. A(O  24,C  23,O  25)          120.8970         0.470701   
    122. A(C  15,C  23,O  25)          119.3307         0.399914   
    123. A(C  15,C  23,O  24)          119.7631         0.436858   
    124. A(C  23,O  25,C  26)          125.6384         0.423838   
    125. A(H  44,C  26,H  45)          108.5259         0.284169   
    126. A(H  43,C  26,H  45)          108.5835         0.284181   
    127. A(O  25,C  26,H  45)          112.6968         0.342101   
    128. A(H  43,C  26,H  44)          108.7971         0.284419   
    129. A(O  25,C  26,H  44)          109.0583         0.342411   
    130. A(O  25,C  26,H  43)          109.1084         0.342425   
    131. D(C   5,C   1,C   0,H   4)    -60.8465         0.010723   
    132. D(S   6,C   1,C   0,H   4)   -179.2577         0.010723   
    133. D(N   9,C   1,C   0,H   2)    -57.8995         0.010723   
    134. D(S   6,C   1,C   0,H   2)     60.6088         0.010723   
    135. D(C   5,C   1,C   0,H   3)     59.2212         0.010723   
    136. D(N   9,C   1,C   0,H   4)     62.2340         0.010723   
    137. D(N   9,C   1,C   0,H   3)   -177.6983         0.010723   
    138. D(S   6,C   1,C   0,H   3)    -59.1900         0.010723   
    139. D(C   5,C   1,C   0,H   2)    179.0200         0.010723   
    140. D(H  41,C   5,C   1,S   6)    179.4005         0.010493   
    141. D(H  40,C   5,C   1,C   0)   -179.7467         0.010493   
    142. D(H  40,C   5,C   1,N   9)     57.0564         0.010493   
    143. D(H  41,C   5,C   1,N   9)    -63.5534         0.010493   
    144. D(H  42,C   5,C   1,N   9)    176.7939         0.010493   
    145. D(H  41,C   5,C   1,C   0)     59.6436         0.010493   
    146. D(H  42,C   5,C   1,S   6)     59.7478         0.010493   
    147. D(H  40,C   5,C   1,S   6)    -59.9898         0.010493   
    148. D(H  42,C   5,C   1,C   0)    -60.0091         0.010493   
    149. D(C   7,S   6,C   1,C   0)    -98.6462         0.003200   
    150. D(C   7,S   6,C   1,C   5)    140.8548         0.003200   
    151. D(C   7,S   6,C   1,N   9)     21.8446         0.003200   
    152. D(H  28,C   7,S   6,C   1)     82.8527         0.003626   
    153. D(H  27,C   7,S   6,C   1)   -157.9091         0.003626   
    154. D(C   8,C   7,S   6,C   1)    -33.6296         0.003626   
    155. D(C  12,C   8,C   7,H  28)    162.3154         0.011818   
    156. D(C  12,C   8,C   7,H  27)     41.6688         0.011818   
    157. D(C  12,C   8,C   7,S   6)    -84.0221         0.011818   
    158. D(N   9,C   8,C   7,H  28)    -77.2449         0.011818   
    159. D(N   9,C   8,C   7,H  27)    162.1085         0.011818   
    160. D(H  29,C   8,C   7,S   6)    155.1829         0.011818   
    161. D(N   9,C   8,C   7,S   6)     36.4176         0.011818   
    162. D(H  29,C   8,C   7,H  28)     41.5204         0.011818   
    163. D(H  29,C   8,C   7,H  27)    -79.1262         0.011818   
    164. D(C  10,N   9,C   8,H  29)     45.2990         0.017312   
    165. D(C  10,N   9,C   8,C  12)    -76.9961         0.017312   
    166. D(C   1,N   9,C   8,H  29)   -136.3019         0.017312   
    167. D(C   1,N   9,C   8,C  12)    101.4031         0.017312   
    168. D(C   1,N   9,C   8,C   7)    -20.8112         0.017312   
    169. D(C  10,N   9,C   1,S   6)    174.4938         0.015797   
    170. D(C  10,N   9,C   1,C   5)     57.5150         0.015797   
    171. D(C  10,N   9,C   1,C   0)    -65.7173         0.015797   
    172. D(C  10,N   9,C   8,C   7)    160.7897         0.017312   
    173. D(C   8,N   9,C   1,S   6)     -3.8908         0.015797   
    174. D(C   8,N   9,C   1,C   5)   -120.8695         0.015797   
    175. D(C   8,N   9,C   1,C   0)    115.8981         0.015797   
    176. D(H  34,C  10,N   9,C   8)    179.5431         0.030100   
    177. D(H  34,C  10,N   9,C   1)      1.2540         0.030100   
    178. D(O  11,C  10,N   9,C   8)     -0.7016         0.030100   
    179. D(O  11,C  10,N   9,C   1)   -178.9908         0.030100   
    180. D(N  14,C  12,C   8,N   9)    121.2656         0.011456   
    181. D(N  14,C  12,C   8,H  29)     -1.6650         0.011456   
    182. D(N  14,C  12,C   8,C   7)   -120.2290         0.011456   
    183. D(O  13,C  12,C   8,H  29)    178.5051         0.011456   
    184. D(O  13,C  12,C   8,N   9)    -58.5644         0.011456   
    185. D(O  13,C  12,C   8,C   7)     59.9411         0.011456   
    186. D(H  30,N  14,C  12,O  13)    179.9812         0.030808   
    187. D(H  30,N  14,C  12,C   8)      0.1533         0.030808   
    188. D(C  15,N  14,C  12,O  13)      0.0048         0.030808   
    189. D(C  15,N  14,C  12,C   8)   -179.8230         0.030808   
    190. D(C  23,C  15,N  14,H  30)    -61.0417         0.016367   
    191. D(C  23,C  15,N  14,C  12)    118.9349         0.016367   
    192. D(C  16,C  15,N  14,H  30)     60.8676         0.016367   
    193. D(C  16,C  15,N  14,C  12)   -119.1558         0.016367   
    194. D(H  33,C  15,N  14,H  30)    179.5899         0.016367   
    195. D(H  33,C  15,N  14,C  12)     -0.4335         0.016367   
    196. D(H  32,C  16,C  15,H  33)    178.1301         0.010021   
    197. D(H  32,C  16,C  15,C  23)     57.9408         0.010021   
    198. D(H  32,C  16,C  15,N  14)    -61.8929         0.010021   
    199. D(H  31,C  16,C  15,H  33)    -65.6909         0.010021   
    200. D(H  31,C  16,C  15,C  23)    174.1197         0.010021   
    201. D(H  31,C  16,C  15,N  14)     54.2860         0.010021   
    202. D(C  17,C  16,C  15,H  33)     55.1126         0.010021   
    203. D(C  17,C  16,C  15,C  23)    -65.0768         0.010021   
    204. D(C  17,C  16,C  15,N  14)    175.0896         0.010021   
    205. D(C  22,C  17,C  16,H  32)     54.6224         0.011219   
    206. D(C  22,C  17,C  16,H  31)    -61.1369         0.011219   
    207. D(C  22,C  17,C  16,C  15)    177.4693         0.011219   
    208. D(C  18,C  17,C  16,H  32)   -125.9538         0.011219   
    209. D(C  18,C  17,C  16,H  31)    118.2869         0.011219   
    210. D(C  18,C  17,C  16,C  15)     -3.1069         0.011219   
    211. D(H  35,C  18,C  17,C  22)    179.0859         0.022909   
    212. D(H  35,C  18,C  17,C  16)     -0.3324         0.022909   
    213. D(C  19,C  18,C  17,C  22)     -0.3945         0.022909   
    214. D(C  19,C  18,C  17,C  16)   -179.8129         0.022909   
    215. D(H  37,C  19,C  18,H  35)      0.4685         0.025297   
    216. D(H  37,C  19,C  18,C  17)    179.9709         0.025297   
    217. D(C  20,C  19,C  18,H  35)   -179.3855         0.025297   
    218. D(C  20,C  19,C  18,C  17)      0.1169         0.025297   
    219. D(H  36,C  20,C  19,H  37)      0.1175         0.025871   
    220. D(H  36,C  20,C  19,C  18)    179.9716         0.025871   
    221. D(C  21,C  20,C  19,H  37)   -179.7099         0.025871   
    222. D(C  21,C  20,C  19,C  18)      0.1442         0.025871   
    223. D(H  39,C  21,C  20,H  36)      0.0209         0.025936   
    224. D(H  39,C  21,C  20,C  19)    179.8483         0.025936   
    225. D(C  22,C  21,C  20,H  36)   -179.9466         0.025936   
    226. D(C  22,C  21,C  20,C  19)     -0.1192         0.025936   
    227. D(H  38,C  22,C  21,H  39)      0.0043         0.025454   
    228. D(H  38,C  22,C  21,C  20)    179.9718         0.025454   
    229. D(C  17,C  22,C  21,H  39)    179.8643         0.025454   
    230. D(C  17,C  22,C  21,C  20)     -0.1682         0.025454   
    231. D(H  38,C  22,C  17,C  18)   -179.7211         0.023712   
    232. D(H  38,C  22,C  17,C  16)     -0.2642         0.023712   
    233. D(C  21,C  22,C  17,C  18)      0.4207         0.023712   
    234. D(C  21,C  22,C  17,C  16)    179.8776         0.023712   
    235. D(O  25,C  23,C  15,H  33)      2.2437         0.011941   
    236. D(O  25,C  23,C  15,C  16)    122.0007         0.011941   
    237. D(O  25,C  23,C  15,N  14)   -117.9223         0.011941   
    238. D(O  24,C  23,C  15,H  33)   -178.8530         0.011941   
    239. D(O  24,C  23,C  15,C  16)    -59.0960         0.011941   
    240. D(O  24,C  23,C  15,N  14)     60.9811         0.011941   
    241. D(C  26,O  25,C  23,O  24)      1.2523         0.028900   
    242. D(C  26,O  25,C  23,C  15)   -179.8571         0.028900   
    243. D(H  45,C  26,O  25,C  23)      0.0815         0.026718   
    244. D(H  44,C  26,O  25,C  23)    120.6699         0.026718   
    245. D(H  43,C  26,O  25,C  23)   -120.6142         0.026718   
    -----------------------------------------------------------------

Number of atoms                         .... 46
Number of degrees of freedom            .... 245

         *************************************************************
         *                GEOMETRY OPTIMIZATION CYCLE   1            *
         *************************************************************
---------------------------------
CARTESIAN COORDINATES (ANGSTROEM)
---------------------------------
  C     -1.891360    1.785890    0.240810
  C     -0.453410    1.707210    0.773840
  H     -1.968130    2.570000   -0.541980
  H     -2.594760    2.038640    1.062790
  H     -2.204720    0.816690   -0.201000
  C     -0.336750    0.641050    1.877210
  S      0.019450    3.319350    1.515080
  C      0.879130    3.757720   -0.012490
  C      1.453550    2.471440   -0.587510
  N      0.486300    1.428720   -0.310210
  C      0.483010    0.249880   -1.001010
  O      1.294120    0.040120   -1.890660
  C      2.792730    2.106610    0.023500
  O      2.868970    1.912210    1.228990
  N      3.897120    1.994260   -0.768050
  C      5.218030    1.644790   -0.263290
  C      6.192460    2.805280   -0.567120
  C      7.606770    2.696780   -0.022230
  C      8.060810    1.636980    0.791850
  C      9.379840    1.613880    1.256160
  C     10.261370    2.642410    0.920130
  C      9.825130    3.699480    0.120580
  C      8.507760    3.727790   -0.345740
  C      5.655740    0.356870   -0.920240
  O      5.780490    0.307180   -2.136820
  O      5.884160   -0.739210   -0.149970
  C      6.289270   -1.976880   -0.611080
  H      1.660060    4.537800    0.113840
  H      0.089740    4.147510   -0.691410
  H      1.563630    2.639420   -1.682530
  H      3.800320    2.164180   -1.781480
  H      5.756330    3.738140   -0.146610
  H      6.249930    2.927470   -1.671680
  H      5.183760    1.496850    0.838070
  H     -0.244430   -0.521800   -0.774070
  H      7.414220    0.826990    1.085270
  H     11.281360    2.621550    1.281600
  H      9.718270    0.796840    1.880390
  H      8.188100    4.557360   -0.964910
  H     10.507720    4.498620   -0.138260
  H      0.704060    0.592580    2.261210
  H     -0.619300   -0.364480    1.502910
  H     -1.011440    0.888990    2.724580
  H      5.531440   -2.735910   -0.327630
  H      7.255990   -2.241990   -0.135580
  H      6.419870   -2.001690   -1.714040

----------------------------
CARTESIAN COORDINATES (A.U.)
----------------------------
  NO LB      ZA    FRAG     MASS         X           Y           Z
   0 C     6.0000    0    12.011   -3.574152    3.374843    0.455065
   1 C     6.0000    0    12.011   -0.856821    3.226159    1.462346
   2 H     1.0000    0     1.008   -3.719227    4.856596   -1.024194
   3 H     1.0000    0     1.008   -4.903386    3.852471    2.008382
   4 H     1.0000    0     1.008   -4.166317    1.543320   -0.379835
   5 C     6.0000    0    12.011   -0.636365    1.211409    3.547413
   6 S    16.0000    0    32.060    0.036755    6.272662    2.863086
   7 C     6.0000    0    12.011    1.661315    7.101062   -0.023603
   8 C     6.0000    0    12.011    2.746811    4.670345   -1.110233
   9 N     7.0000    0    14.007    0.918974    2.699890   -0.586212
  10 C     6.0000    0    12.011    0.912757    0.472205   -1.891635
  11 O     8.0000    0    15.999    2.445532    0.075816   -3.572830
  12 C     6.0000    0    12.011    5.277495    3.980916    0.044409
  13 O     8.0000    0    15.999    5.421568    3.613553    2.322455
  14 N     7.0000    0    14.007    7.364490    3.768605   -1.451404
  15 C     6.0000    0    12.011    9.860648    3.108203   -0.497546
  16 C     6.0000    0    12.011   11.702053    5.301211   -1.071701
  17 C     6.0000    0    12.011   14.374712    5.096176   -0.042009
  18 C     6.0000    0    12.011   15.232723    3.093444    1.496380
  19 C     6.0000    0    12.011   17.725329    3.049791    2.373798
  20 C     6.0000    0    12.011   19.391179    4.993431    1.738794
  21 C     6.0000    0    12.011   18.566805    6.991004    0.227863
  22 C     6.0000    0    12.011   16.077336    7.044502   -0.653354
  23 C     6.0000    0    12.011   10.687800    0.674387   -1.739002
  24 O     8.0000    0    15.999   10.923543    0.580486   -4.038005
  25 O     8.0000    0    15.999   11.119451   -1.396904   -0.283402
  26 C     6.0000    0    12.011   11.884998   -3.735762   -1.154774
  27 H     1.0000    0     1.008    3.137059    8.575199    0.215126
  28 H     1.0000    0     1.008    0.169584    7.837658   -1.306576
  29 H     1.0000    0     1.008    2.954832    4.987781   -3.179521
  30 H     1.0000    0     1.008    7.181564    4.089708   -3.366509
  31 H     1.0000    0     1.008   10.877887    7.064061   -0.277053
  32 H     1.0000    0     1.008   11.810656    5.532117   -3.159017
  33 H     1.0000    0     1.008    9.795887    2.828637    1.583723
  34 H     1.0000    0     1.008   -0.461906   -0.986059   -1.462780
  35 H     1.0000    0     1.008   14.010845    1.562785    2.050863
  36 H     1.0000    0     1.008   21.318681    4.954012    2.421873
  37 H     1.0000    0     1.008   18.364869    1.505809    3.553422
  38 H     1.0000    0     1.008   15.473267    8.612162   -1.823416
  39 H     1.0000    0     1.008   19.856713    8.501160   -0.261274
  40 H     1.0000    0     1.008    1.330481    1.119814    4.273068
  41 H     1.0000    0     1.008   -1.170307   -0.688767    2.840088
  42 H     1.0000    0     1.008   -1.911345    1.679948    5.148710
  43 H     1.0000    0     1.008   10.452907   -5.170121   -0.619131
  44 H     1.0000    0     1.008   13.711834   -4.236747   -0.256209
  45 H     1.0000    0     1.008   12.131796   -3.782646   -3.239066

--------------------------------
INTERNAL COORDINATES (ANGSTROEM)
--------------------------------
 C      0   0   0     0.000000000000     0.00000000     0.00000000
 C      1   0   0     1.535581885085     0.00000000     0.00000000
 H      1   2   0     1.110622487212   110.21597810     0.00000000
 H      1   2   3     1.110992908573   110.34731169   240.20116158
 H      1   2   3     1.110287893161   110.95832937   120.13349123
 C      2   1   3     1.538743662245   110.81804272   179.02001492
 S      2   1   3     1.836308442719   109.64965952    60.60884010
 C      7   2   1     1.806844781435    89.67061954   261.35383371
 C      8   7   2     1.521552685647   107.09903316   326.37044625
 N      9   8   7     1.449045496491   106.49924989    36.41758381
 C     10   9   8     1.366337882700   121.71529435   160.78965069
 O     11  10   9     1.222037565789   120.96828815   359.29835735
 C      9   8   7     1.516521421346   112.61165906   275.97787130
 O     13   9   8     1.223441881619   119.35667750    59.94108708
 N     13   9   8     1.363396933068   120.08035868   239.77099727
 C     15  13   9     1.456610849404   123.58331447   180.17699882
 C     16  15  13     1.545497827206   108.87356744   240.84417372
 C     17  16  15     1.519522996930   117.56326843   175.08958710
 C     18  17  16     1.411401646591   124.04669189   356.89307371
 C     19  18  17     1.398555514451   120.48374082   180.18709017
 C     20  19  18     1.395666601556   120.23838892     0.11689609
 C     21  20  19     1.395343156718   119.91936218     0.14422702
 C     22  21  20     1.397755170049   120.07761788   359.88077802
 C     16  15  13     1.510599640209   108.45825994   118.93489079
 O     24  16  15     1.223968363562   119.76305091    60.98109377
 O     24  16  15     1.359000712178   119.33072932   242.07772624
 C     26  24  16     1.381507717351   125.63840341   180.14288742
 H      8   7   2     1.111006633734   114.12021087   202.09092070
 H      8   7   2     1.111757699591   105.27888913    82.85274508
 H      9   8   7     1.113285088017   106.34912308   155.18288888
 H     15  13   9     1.032125676117   118.71931192     0.15331789
 H     17  16  15     1.112324510473   107.95106357    54.28603722
 H     17  16  15     1.112782993490   108.06834446   298.10712926
 H     16  15  13     1.111779891031   110.31951363   359.56649233
 H     11  10   9     1.084509446524   120.64536284   179.54312516
 H     19  18  17     1.077152600424   121.91486790   359.66755439
 H     21  20  19     1.082347125741   120.04091554   179.97157933
 H     20  19  18     1.082475089506   119.91955337   179.97090794
 H     23  22  21     1.083392998593   118.96414200   179.97181826
 H     22  21  20     1.082382554045   119.94665183   179.84828471
 H      6   2   1     1.110446215267   110.44255949   180.25332123
 H      6   2   1     1.109515918498   111.51403515    59.64355193
 H      6   2   1     1.111178094007   110.25401221   299.99086698
 H     27  26  24     1.109403782353   109.10838894   239.38580505
 H     27  26  24     1.109473352767   109.05834587   120.66986281
 H     27  26  24     1.110942238688   112.69679477     0.08147829

---------------------------
INTERNAL COORDINATES (A.U.)
---------------------------
 C      0   0   0     0.000000000000     0.00000000     0.00000000
 C      1   0   0     2.901829219020     0.00000000     0.00000000
 H      1   2   0     2.098772339004   110.21597810     0.00000000
 H      1   2   3     2.099472333932   110.34731169   240.20116158
 H      1   2   3     2.098140047883   110.95832937   120.13349123
 C      2   1   3     2.907804111951   110.81804272   179.02001492
 S      2   1   3     3.470120054146   109.64965952    60.60884010
 C      7   2   1     3.414441803418    89.67061954   261.35383371
 C      8   7   2     2.875317874205   107.09903316   326.37044625
 N      9   8   7     2.738299143959   106.49924989    36.41758381
 C     10   9   8     2.582004404704   121.71529435   160.78965069
 O     11  10   9     2.309316324705   120.96828815   359.29835735
 C      9   8   7     2.865810162568   112.61165906   275.97787130
 O     13   9   8     2.311970097030   119.35667750    59.94108708
 N     13   9   8     2.576446815327   120.08035868   239.77099727
 C     15  13   9     2.752595589071   123.58331447   180.17699882
 C     16  15  13     2.920567633991   108.87356744   240.84417372
 C     17  16  15     2.871482318394   117.56326843   175.08958710
 C     18  17  16     2.667162577023   124.04669189   356.89307371
 C     19  18  17     2.642886905397   120.48374082   180.18709017
 C     20  19  18     2.637427651202   120.23838892     0.11689609
 C     21  20  19     2.636816429038   119.91936218     0.14422702
 C     22  21  20     2.641374473666   120.07761788   359.88077802
 C     16  15  13     2.854619617995   108.45825994   118.93489079
 O     24  16  15     2.312965003715   119.76305091    60.98109377
 O     24  16  15     2.568139161820   119.33072932   242.07772624
 C     26  24  16     2.610671237692   125.63840341   180.14288742
 H      8   7   2     2.099498270726   114.12021087   202.09092070
 H      8   7   2     2.100917579505   105.27888913    82.85274508
 H      9   8   7     2.103803925330   106.34912308   155.18288888
 H     15  13   9     1.950434863649   118.71931192     0.15331789
 H     17  16  15     2.101988696843   107.95106357    54.28603722
 H     17  16  15     2.102855104181   108.06834446   298.10712926
 H     16  15  13     2.100959515249   110.31951363   359.56649233
 H     11  10   9     2.049425843581   120.64536284   179.54312516
 H     19  18  17     2.035523419242   121.91486790   359.66755439
 H     21  20  19     2.045339649487   120.04091554   179.97157933
 H     20  19  18     2.045581465957   119.91955337   179.97090794
 H     23  22  21     2.047316062748   118.96414200   179.97181826
 H     22  21  20     2.045406599278   119.94665183   179.84828471
 H      6   2   1     2.098439233303   110.44255949   180.25332123
 H      6   2   1     2.096681227187   111.51403515    59.64355193
 H      6   2   1     2.099822283685   110.25401221   299.99086698
 H     27  26  24     2.096469320584   109.10838894   239.38580505
 H     27  26  24     2.096600789613   109.05834587   120.66986281
 H     27  26  24     2.099376581725   112.69679477     0.08147829

---------------------
BASIS SET INFORMATION
---------------------
There are 5 groups of distinct atoms

 Group   1 Type C   : 7s4p1d contracted to 3s2p1d pattern {511/31/1}
 Group   2 Type H   : 4s1p contracted to 2s1p pattern {31/1}
 Group   3 Type S   : 10s7p1d contracted to 4s3p1d pattern {5311/511/1}
 Group   4 Type N   : 7s4p1d contracted to 3s2p1d pattern {511/31/1}
 Group   5 Type O   : 7s4p1d contracted to 3s2p1d pattern {511/31/1}

Atom   0C    basis set group =>   1
Atom   1C    basis set group =>   1
Atom   2H    basis set group =>   2
Atom   3H    basis set group =>   2
Atom   4H    basis set group =>   2
Atom   5C    basis set group =>   1
Atom   6S    basis set group =>   3
Atom   7C    basis set group =>   1
Atom   8C    basis set group =>   1
Atom   9N    basis set group =>   4
Atom  10C    basis set group =>   1
Atom  11O    basis set group =>   5
Atom  12C    basis set group =>   1
Atom  13O    basis set group =>   5
Atom  14N    basis set group =>   4
Atom  15C    basis set group =>   1
Atom  16C    basis set group =>   1
Atom  17C    basis set group =>   1
Atom  18C    basis set group =>   1
Atom  19C    basis set group =>   1
Atom  20C    basis set group =>   1
Atom  21C    basis set group =>   1
Atom  22C    basis set group =>   1
Atom  23C    basis set group =>   1
Atom  24O    basis set group =>   5
Atom  25O    basis set group =>   5
Atom  26C    basis set group =>   1
Atom  27H    basis set group =>   2
Atom  28H    basis set group =>   2
Atom  29H    basis set group =>   2
Atom  30H    basis set group =>   2
Atom  31H    basis set group =>   2
Atom  32H    basis set group =>   2
Atom  33H    basis set group =>   2
Atom  34H    basis set group =>   2
Atom  35H    basis set group =>   2
Atom  36H    basis set group =>   2
Atom  37H    basis set group =>   2
Atom  38H    basis set group =>   2
Atom  39H    basis set group =>   2
Atom  40H    basis set group =>   2
Atom  41H    basis set group =>   2
Atom  42H    basis set group =>   2
Atom  43H    basis set group =>   2
Atom  44H    basis set group =>   2
Atom  45H    basis set group =>   2
---------------------------------
AUXILIARY/J BASIS SET INFORMATION
---------------------------------
There are 5 groups of distinct atoms

 Group   1 Type C   : 12s5p4d2f1g contracted to 6s4p3d1f1g pattern {711111/2111/211/2/1}
 Group   2 Type H   : 5s2p1d contracted to 3s1p1d pattern {311/2/1}
 Group   3 Type S   : 14s5p5d2f1g contracted to 8s4p3d1f1g pattern {71111111/2111/311/2/1}
 Group   4 Type N   : 12s5p4d2f1g contracted to 6s4p3d1f1g pattern {711111/2111/211/2/1}
 Group   5 Type O   : 12s5p4d2f1g contracted to 6s4p3d1f1g pattern {711111/2111/211/2/1}

Atom   0C    basis set group =>   1
Atom   1C    basis set group =>   1
Atom   2H    basis set group =>   2
Atom   3H    basis set group =>   2
Atom   4H    basis set group =>   2
Atom   5C    basis set group =>   1
Atom   6S    basis set group =>   3
Atom   7C    basis set group =>   1
Atom   8C    basis set group =>   1
Atom   9N    basis set group =>   4
Atom  10C    basis set group =>   1
Atom  11O    basis set group =>   5
Atom  12C    basis set group =>   1
Atom  13O    basis set group =>   5
Atom  14N    basis set group =>   4
Atom  15C    basis set group =>   1
Atom  16C    basis set group =>   1
Atom  17C    basis set group =>   1
Atom  18C    basis set group =>   1
Atom  19C    basis set group =>   1
Atom  20C    basis set group =>   1
Atom  21C    basis set group =>   1
Atom  22C    basis set group =>   1
Atom  23C    basis set group =>   1
Atom  24O    basis set group =>   5
Atom  25O    basis set group =>   5
Atom  26C    basis set group =>   1
Atom  27H    basis set group =>   2
Atom  28H    basis set group =>   2
Atom  29H    basis set group =>   2
Atom  30H    basis set group =>   2
Atom  31H    basis set group =>   2
Atom  32H    basis set group =>   2
Atom  33H    basis set group =>   2
Atom  34H    basis set group =>   2
Atom  35H    basis set group =>   2
Atom  36H    basis set group =>   2
Atom  37H    basis set group =>   2
Atom  38H    basis set group =>   2
Atom  39H    basis set group =>   2
Atom  40H    basis set group =>   2
Atom  41H    basis set group =>   2
Atom  42H    basis set group =>   2
Atom  43H    basis set group =>   2
Atom  44H    basis set group =>   2
Atom  45H    basis set group =>   2
------------------------------------------------------------------------------
                           ORCA GTO INTEGRAL CALCULATION
                           -- RI-GTO INTEGRALS CHOSEN --
------------------------------------------------------------------------------
------------------------------------------------------------------------------
                   ___                                                        
                  /   \      - P O W E R E D   B Y -                         
                 /     \                                                     
                 |  |  |   _    _      __       _____    __    __             
                 |  |  |  | |  | |    /  \     |  _  \  |  |  /  |          
                  \  \/   | |  | |   /    \    | | | |  |  | /  /          
                 / \  \   | |__| |  /  /\  \   | |_| |  |  |/  /          
                |  |  |   |  __  | /  /__\  \  |    /   |      \           
                |  |  |   | |  | | |   __   |  |    \   |  |\   \          
                \     /   | |  | | |  |  |  |  | |\  \  |  | \   \       
                 \___/    |_|  |_| |__|  |__|  |_| \__\ |__|  \__/        
                                                                              
                      - O R C A' S   B I G   F R I E N D -                    
                                      &                                       
                       - I N T E G R A L  F E E D E R -                       
                                                                              
 v1 FN, 2020, v2 2021                                                         
------------------------------------------------------------------------------


Reading SHARK input file input.SHARKINP.tmp ... ok
----------------------
SHARK INTEGRAL PACKAGE
----------------------

Number of atoms                             ...     46
Number of basis functions                   ...    450
Number of shells                            ...    212
Maximum angular momentum                    ...      2
Integral batch strategy                     ... SHARK/LIBINT Hybrid
RI-J (if used) integral strategy            ... SPLIT-RIJ (Revised 2003 algorithm where possible)
Printlevel                                  ...      1
Contraction scheme used                     ... SEGMENTED contraction
Coulomb Range Separation                    ... NOT USED
Exchange Range Separation                   ... NOT USED
Finite Nucleus Model                        ... NOT USED
Auxiliary Coulomb fitting basis             ... AVAILABLE
   # of basis functions in Aux-J            ...   1420
   # of shells in Aux-J                     ...    472
   Maximum angular momentum in Aux-J        ...      4
Auxiliary J/K fitting basis                 ... NOT available
Auxiliary Correlation fitting basis         ... NOT available
Auxiliary 'external' fitting basis          ... NOT available
Integral threshold                          ...     2.500000e-11
Primitive cut-off                           ...     2.500000e-12
Primitive pair pre-selection threshold      ...     2.500000e-12

Calculating pre-screening integrals         ... done (  0.0 sec) Dimension = 212
Organizing shell pair data                  ... done (  0.1 sec)
Shell pair information
Total number of shell pairs                 ...     22578
Shell pairs after pre-screening             ...     14782
Total number of primitive shell pairs       ...     82198
Primitive shell pairs kept                  ...     33861
          la=0 lb=0:   4681 shell pairs
          la=1 lb=0:   5552 shell pairs
          la=1 lb=1:   1686 shell pairs
          la=2 lb=0:   1708 shell pairs
          la=2 lb=1:   1002 shell pairs
          la=2 lb=2:    153 shell pairs

Calculating one electron integrals          ... done (  0.0 sec)
Calculating RI/J V-Matrix + Cholesky decomp.... done (  0.1 sec)
Calculating Nuclear repulsion               ... done (  0.0 sec) ENN=   2252.013622781440 Eh

SHARK setup successfully completed in   0.3 seconds

Maximum memory used throughout the entire GTOINT-calculation: 86.3 MB
-------------------------------------------------------------------------------
                                 ORCA SCF
-------------------------------------------------------------------------------

------------
SCF SETTINGS
------------
Hamiltonian:
 Density Functional     Method          .... DFT(GTOs)
 Exchange Functional    Exchange        .... B88
   X-Alpha parameter    XAlpha          ....  0.666667
   Becke's b parameter  XBeta           ....  0.004200
 Correlation Functional Correlation     .... P86
 LDA part of GGA corr.  LDAOpt          .... PW91-LDA
 Gradients option       PostSCFGGA      .... off
   Density functional embedding theory  .... OFF
   NL short-range parameter             ....  4.400000
 RI-approximation to the Coulomb term is turned on
   Number of AuxJ basis functions       .... 1420


General Settings:
 Integral files         IntName         .... input
 Hartree-Fock type      HFTyp           .... RHF
 Total Charge           Charge          ....    0
 Multiplicity           Mult            ....    1
 Number of Electrons    NEL             ....  186
 Basis Dimension        Dim             ....  450
 Nuclear Repulsion      ENuc            ....   2252.0136227814 Eh

Convergence Acceleration:
 DIIS                   CNVDIIS         .... on
   Start iteration      DIISMaxIt       ....    12
   Startup error        DIISStart       ....  0.200000
   # of expansion vecs  DIISMaxEq       ....     5
   Bias factor          DIISBfac        ....   1.050
   Max. coefficient     DIISMaxC        ....  10.000
 Trust-Rad. Augm. Hess. CNVTRAH         .... auto
   Auto Start mean grad. ratio tolernc. ....  1.125000
   Auto Start start iteration           ....    20
   Auto Start num. interpolation iter.  ....    10
   Max. Number of Micro iterations      ....    16
   Max. Number of Macro iterations      .... Maxiter - #DIIS iter
   Number of Davidson start vectors     ....     2
   Converg. threshold I  (grad. norm)   ....   1.000e-05
   Converg. threshold II (energy diff.) ....   1.000e-08
   Grad. Scal. Fac. for Micro threshold ....   0.100
   Minimum threshold for Micro iter.    ....   0.010
   NR start threshold (gradient norm)   ....   0.001
   Initial trust radius                 ....   0.400
   Minimum AH scaling param. (alpha)    ....   1.000
   Maximum AH scaling param. (alpha)    .... 1000.000
   Orbital update algorithm             .... Taylor
   White noise on init. David. guess    .... on
   Maximum white noise                  ....   0.010
   Quad. conv. algorithm                .... NR
 SOSCF                  CNVSOSCF        .... on
   Start iteration      SOSCFMaxIt      ....   150
   Startup grad/error   SOSCFStart      ....  0.003300
 Level Shifting         CNVShift        .... on
   Level shift para.    LevelShift      ....    0.2500
   Turn off err/grad.   ShiftErr        ....    0.0010
 Zerner damping         CNVZerner       .... off
 Static damping         CNVDamp         .... on
   Fraction old density DampFac         ....    0.7000
   Max. Damping (<1)    DampMax         ....    0.9800
   Min. Damping (>=0)   DampMin         ....    0.0000
   Turn off err/grad.   DampErr         ....    0.1000
 Fernandez-Rico         CNVRico         .... off

SCF Procedure:
 Maximum # iterations   MaxIter         ....   125
 SCF integral mode      SCFMode         .... Direct
   Integral package                     .... SHARK and LIBINT hybrid scheme
 Reset frequency        DirectResetFreq ....    20
 Integral Threshold     Thresh          ....  2.500e-11 Eh
 Primitive CutOff       TCut            ....  2.500e-12 Eh

Convergence Tolerance:
 Convergence Check Mode ConvCheckMode   .... Total+1el-Energy
 Convergence forced     ConvForced      .... 0
 Energy Change          TolE            ....  1.000e-08 Eh
 1-El. energy change                    ....  1.000e-05 Eh
 Orbital Gradient       TolG            ....  1.000e-05
 Orbital Rotation angle TolX            ....  1.000e-05
 DIIS Error             TolErr          ....  5.000e-07


Diagonalization of the overlap matrix:
Smallest eigenvalue                        ... 3.030e-04
Time for diagonalization                   ...    0.015 sec
Threshold for overlap eigenvalues          ... 1.000e-08
Number of eigenvalues below threshold      ... 0
Time for construction of square roots      ...    0.004 sec
Total time needed                          ...    0.019 sec

Time for model grid setup =    0.644 sec

------------------------------
INITIAL GUESS: MODEL POTENTIAL
------------------------------
Loading Hartree-Fock densities                     ... done
Calculating cut-offs                               ... done
Initializing the effective Hamiltonian             ... done
Setting up the integral package (SHARK)            ... done
Starting the Coulomb interaction                   ... done (   0.6 sec)
Reading the grid                                   ... done
Mapping shells                                     ... done
Starting the XC term evaluation                    ... done (   0.5 sec)
  promolecular density results
     # of electrons  =    185.995025615
     EX              =   -164.924282625
     EC              =     -6.965534079
     EX+EC           =   -171.889816704
Transforming the Hamiltonian                       ... done (   0.0 sec)
Diagonalizing the Hamiltonian                      ... done (   0.0 sec)
Back transforming the eigenvectors                 ... done (   0.0 sec)
Now organizing SCF variables                       ... done
                      ------------------
                      INITIAL GUESS DONE (   1.8 sec)
                      ------------------
-------------------
DFT GRID GENERATION
-------------------

General Integration Accuracy     IntAcc      ... 4.388
Radial Grid Type                 RadialGrid  ... OptM3 with GC (2021)
Angular Grid (max. ang.)         AngularGrid ... 4 (Lebedev-302)
Angular grid pruning method      GridPruning ... 4 (adaptive)
Weight generation scheme         WeightScheme... Becke
Basis function cutoff            BFCut       ... 1.0000e-11
Integration weight cutoff        WCut        ... 1.0000e-14
Angular grids for H and He will be reduced by one unit
Partially contracted basis set               ... off
Rotationally invariant grid construction     ... off

Total number of grid points                  ...   214821
Total number of batches                      ...     3379
Average number of points per batch           ...       63
Average number of grid points per atom       ...     4670
Time for grid setup =    2.345 sec

--------------
SCF ITERATIONS
--------------
ITER       Energy         Delta-E        Max-DP      RMS-DP      [F,P]     Damp
               ***  Starting incremental Fock matrix formation  ***
  0  -1468.2517678240   0.000000000000 0.15770732  0.00186699  0.2609430 0.7000
  1  -1468.5389770555  -0.287209231522 0.08249816  0.00110620  0.0750435 0.7000
                               ***Turning on DIIS***
  2  -1468.6214675337  -0.082490478214 0.05508323  0.00143635  0.0306329 0.0000
  3  -1468.7833949881  -0.161927454382 0.05406793  0.00080096  0.0525515 0.0000
  4  -1468.8114385101  -0.028043522057 0.01749142  0.00027047  0.0347630 0.0000
                      *** Initiating the SOSCF procedure ***
                           *** Shutting down DIIS ***
                      *** Re-Reading the Fockian *** 
                      *** Removing any level shift *** 
ITER      Energy       Delta-E        Grad      Rot      Max-DP    RMS-DP
  5  -1468.81690482  -0.0054663058  0.000565  0.000565  0.006685  0.000082
               *** Restarting incremental Fock matrix formation ***
  6  -1468.81704571  -0.0001408892  0.000859  0.004131  0.006376  0.000082
  7  -1468.81683737   0.0002083352  0.002872  0.003283  0.004852  0.000057
  8  -1468.81707590  -0.0002385282  0.000115  0.000335  0.000884  0.000013
  9  -1468.81707312   0.0000027742  0.000254  0.000249  0.000624  0.000008
 10  -1468.81707677  -0.0000036414  0.000054  0.000186  0.000463  0.000007
 11  -1468.81707578   0.0000009896  0.000105  0.000134  0.000330  0.000005
 12  -1468.81707701  -0.0000012302  0.000021  0.000100  0.000106  0.000002
 13  -1468.81707694   0.0000000710  0.000049  0.000085  0.000081  0.000001
 14  -1468.81707704  -0.0000001090  0.000011  0.000042  0.000039  0.000001
 15  -1468.81707703   0.0000000149  0.000019  0.000027  0.000026  0.000001
                  ***Gradient check signals convergence***
              ***Rediagonalizing the Fockian in SOSCF/NRSCF***

               *****************************************************
               *                     SUCCESS                       *
               *           SCF CONVERGED AFTER  16 CYCLES          *
               *****************************************************


----------------
TOTAL SCF ENERGY
----------------

Total Energy       :        -1468.81707704 Eh          -39968.54463 eV

Components:
Nuclear Repulsion  :         2252.01362278 Eh           61280.40611 eV
Electronic Energy  :        -3720.83069982 Eh         -101248.95074 eV
One Electron Energy:        -6485.03361326 Eh         -176466.73601 eV
Two Electron Energy:         2764.20291344 Eh           75217.78527 eV

Virial components:
Potential Energy   :        -2925.29489103 Eh          -79601.32084 eV
Kinetic Energy     :         1456.47781398 Eh           39632.77621 eV
Virial Ratio       :            2.00847199


DFT components:
N(Alpha)           :       92.999936300424 electrons
N(Beta)            :       92.999936300424 electrons
N(Total)           :      185.999872600847 electrons
E(X)               :     -167.289249572830 Eh       
E(C)               :       -6.962301466124 Eh       
E(XC)              :     -174.251551038954 Eh       
DFET-embed. en.    :        0.000000000000 Eh       

---------------
SCF CONVERGENCE
---------------

  Last Energy change         ...   -1.2365e-08  Tolerance :   1.0000e-08
  Last MAX-Density change    ...    1.4175e-05  Tolerance :   1.0000e-07
  Last RMS-Density change    ...    1.9526e-07  Tolerance :   5.0000e-09
  Last Orbital Gradient      ...    1.9914e-06  Tolerance :   1.0000e-05
  Last Orbital Rotation      ...    9.4291e-06  Tolerance :   1.0000e-05

             **** THE GBW FILE WAS UPDATED (input.gbw) ****
             **** DENSITY input.scfp WAS UPDATED ****
             **** ENERGY FILE WAS UPDATED (input.en.tmp) ****
             **** THE GBW FILE WAS UPDATED (input.gbw) ****
             **** DENSITY input.scfp WAS UPDATED ****
----------------
ORBITAL ENERGIES
----------------

  NO   OCC          E(Eh)            E(eV) 
   0   2.0000     -88.080220     -2396.7846 
   1   2.0000     -18.829301      -512.3713 
   2   2.0000     -18.767274      -510.6835 
   3   2.0000     -18.747488      -510.1451 
   4   2.0000     -18.744192      -510.0554 
   5   2.0000     -14.056422      -382.4947 
   6   2.0000     -14.053073      -382.4036 
   7   2.0000     -10.038576      -273.1636 
   8   2.0000     -10.007141      -272.3081 
   9   2.0000     -10.004157      -272.2270 
  10   2.0000      -9.992151      -271.9002 
  11   2.0000      -9.977567      -271.5034 
  12   2.0000      -9.974782      -271.4276 
  13   2.0000      -9.972773      -271.3729 
  14   2.0000      -9.959587      -271.0141 
  15   2.0000      -9.934801      -270.3397 
  16   2.0000      -9.930792      -270.2306 
  17   2.0000      -9.923275      -270.0260 
  18   2.0000      -9.917791      -269.8768 
  19   2.0000      -9.917318      -269.8639 
  20   2.0000      -9.917172      -269.8600 
  21   2.0000      -9.916947      -269.8539 
  22   2.0000      -9.916671      -269.8463 
  23   2.0000      -9.915182      -269.8058 
  24   2.0000      -7.678153      -208.9332 
  25   2.0000      -5.706857      -155.2915 
  26   2.0000      -5.703021      -155.1871 
  27   2.0000      -5.693298      -154.9225 
  28   2.0000      -1.011749       -27.5311 
  29   2.0000      -0.952490       -25.9186 
  30   2.0000      -0.939816       -25.5737 
  31   2.0000      -0.922748       -25.1093 
  32   2.0000      -0.875668       -23.8281 
  33   2.0000      -0.844993       -22.9934 
  34   2.0000      -0.778781       -21.1917 
  35   2.0000      -0.743056       -20.2196 
  36   2.0000      -0.739374       -20.1194 
  37   2.0000      -0.721467       -19.6321 
  38   2.0000      -0.686979       -18.6937 
  39   2.0000      -0.672219       -18.2920 
  40   2.0000      -0.660948       -17.9853 
  41   2.0000      -0.635533       -17.2937 
  42   2.0000      -0.628067       -17.0906 
  43   2.0000      -0.598375       -16.2826 
  44   2.0000      -0.594933       -16.1889 
  45   2.0000      -0.559745       -15.2314 
  46   2.0000      -0.546923       -14.8825 
  47   2.0000      -0.538361       -14.6496 
  48   2.0000      -0.528550       -14.3826 
  49   2.0000      -0.522776       -14.2255 
  50   2.0000      -0.508443       -13.8354 
  51   2.0000      -0.484190       -13.1755 
  52   2.0000      -0.472899       -12.8682 
  53   2.0000      -0.469164       -12.7666 
  54   2.0000      -0.457102       -12.4384 
  55   2.0000      -0.446589       -12.1523 
  56   2.0000      -0.433629       -11.7996 
  57   2.0000      -0.424391       -11.5483 
  58   2.0000      -0.419145       -11.4055 
  59   2.0000      -0.409230       -11.1357 
  60   2.0000      -0.406508       -11.0617 
  61   2.0000      -0.402797       -10.9607 
  62   2.0000      -0.398899       -10.8546 
  63   2.0000      -0.396399       -10.7866 
  64   2.0000      -0.392130       -10.6704 
  65   2.0000      -0.382570       -10.4103 
  66   2.0000      -0.378352       -10.2955 
  67   2.0000      -0.376596       -10.2477 
  68   2.0000      -0.365373        -9.9423 
  69   2.0000      -0.364481        -9.9180 
  70   2.0000      -0.362059        -9.8521 
  71   2.0000      -0.353151        -9.6097 
  72   2.0000      -0.347404        -9.4533 
  73   2.0000      -0.341201        -9.2845 
  74   2.0000      -0.339869        -9.2483 
  75   2.0000      -0.335618        -9.1326 
  76   2.0000      -0.332037        -9.0352 
  77   2.0000      -0.320998        -8.7348 
  78   2.0000      -0.317697        -8.6450 
  79   2.0000      -0.315135        -8.5752 
  80   2.0000      -0.306839        -8.3495 
  81   2.0000      -0.303090        -8.2475 
  82   2.0000      -0.295761        -8.0481 
  83   2.0000      -0.295045        -8.0286 
  84   2.0000      -0.261565        -7.1175 
  85   2.0000      -0.241833        -6.5806 
  86   2.0000      -0.233558        -6.3554 
  87   2.0000      -0.229556        -6.2465 
  88   2.0000      -0.227230        -6.1832 
  89   2.0000      -0.223872        -6.0919 
  90   2.0000      -0.213065        -5.7978 
  91   2.0000      -0.207889        -5.6569 
  92   2.0000      -0.184723        -5.0266 
  93   0.0000      -0.053344        -1.4516 
  94   0.0000      -0.042381        -1.1532 
  95   0.0000      -0.040396        -1.0992 
  96   0.0000      -0.029460        -0.8017 
  97   0.0000      -0.028298        -0.7700 
  98   0.0000      -0.008937        -0.2432 
  99   0.0000       0.021785         0.5928 
 100   0.0000       0.035475         0.9653 
 101   0.0000       0.039580         1.0770 
 102   0.0000       0.043191         1.1753 
 103   0.0000       0.052353         1.4246 
 104   0.0000       0.057161         1.5554 
 105   0.0000       0.061161         1.6643 
 106   0.0000       0.072790         1.9807 
 107   0.0000       0.076389         2.0787 
 108   0.0000       0.077587         2.1112 
 109   0.0000       0.083353         2.2682 
 110   0.0000       0.090583         2.4649 
 111   0.0000       0.093529         2.5450 
 112   0.0000       0.096353         2.6219 
 113   0.0000       0.100814         2.7433 
 114   0.0000       0.102801         2.7973 
 115   0.0000       0.110230         2.9995 
 116   0.0000       0.114393         3.1128 
 117   0.0000       0.116496         3.1700 
 118   0.0000       0.124402         3.3851 
 119   0.0000       0.127731         3.4757 
 120   0.0000       0.132003         3.5920 
 121   0.0000       0.138045         3.7564 
 122   0.0000       0.139972         3.8088 
 123   0.0000       0.145373         3.9558 
 124   0.0000       0.147750         4.0205 
 125   0.0000       0.153681         4.1819 
 126   0.0000       0.165773         4.5109 
 127   0.0000       0.169508         4.6125 
 128   0.0000       0.176841         4.8121 
 129   0.0000       0.183672         4.9980 
 130   0.0000       0.186670         5.0795 
 131   0.0000       0.200716         5.4618 
 132   0.0000       0.202963         5.5229 
 133   0.0000       0.211418         5.7530 
 134   0.0000       0.238702         6.4954 
 135   0.0000       0.249940         6.8012 
 136   0.0000       0.255392         6.9496 
 137   0.0000       0.257315         7.0019 
 138   0.0000       0.271751         7.3947 
 139   0.0000       0.273249         7.4355 
 140   0.0000       0.282579         7.6894 
 141   0.0000       0.287121         7.8130 
 142   0.0000       0.306085         8.3290 
 143   0.0000       0.320300         8.7158 
 144   0.0000       0.328506         8.9391 
 145   0.0000       0.331484         9.0201 
 146   0.0000       0.348109         9.4725 
 147   0.0000       0.356834         9.7099 
 148   0.0000       0.368139        10.0176 
 149   0.0000       0.373803        10.1717 
 150   0.0000       0.381232        10.3739 
 151   0.0000       0.383575        10.4376 
 152   0.0000       0.388294        10.5660 
 153   0.0000       0.391737        10.6597 
 154   0.0000       0.399870        10.8810 
 155   0.0000       0.404836        11.0162 
 156   0.0000       0.407455        11.0874 
 157   0.0000       0.420136        11.4325 
 158   0.0000       0.423738        11.5305 
 159   0.0000       0.427744        11.6395 
 160   0.0000       0.431349        11.7376 
 161   0.0000       0.439589        11.9618 
 162   0.0000       0.445097        12.1117 
 163   0.0000       0.448356        12.2004 
 164   0.0000       0.453465        12.3394 
 165   0.0000       0.460037        12.5182 
 166   0.0000       0.471196        12.8219 
 167   0.0000       0.475216        12.9313 
 168   0.0000       0.487642        13.2694 
 169   0.0000       0.496593        13.5130 
 170   0.0000       0.505551        13.7568 
 171   0.0000       0.513556        13.9746 
 172   0.0000       0.516048        14.0424 
 173   0.0000       0.523106        14.2344 
 174   0.0000       0.526201        14.3187 
 175   0.0000       0.535646        14.5757 
 176   0.0000       0.538446        14.6519 
 177   0.0000       0.544322        14.8118 
 178   0.0000       0.546104        14.8603 
 179   0.0000       0.550805        14.9882 
 180   0.0000       0.561754        15.2861 
 181   0.0000       0.564990        15.3742 
 182   0.0000       0.573254        15.5990 
 183   0.0000       0.575607        15.6631 
 184   0.0000       0.580681        15.8011 
 185   0.0000       0.582258        15.8440 
 186   0.0000       0.585512        15.9326 
 187   0.0000       0.586707        15.9651 
 188   0.0000       0.590954        16.0807 
 189   0.0000       0.591529        16.0963 
 190   0.0000       0.593788        16.1578 
 191   0.0000       0.598421        16.2839 
 192   0.0000       0.599528        16.3140 
 193   0.0000       0.600414        16.3381 
 194   0.0000       0.602232        16.3876 
 195   0.0000       0.603979        16.4351 
 196   0.0000       0.607789        16.5388 
 197   0.0000       0.614480        16.7209 
 198   0.0000       0.618498        16.8302 
 199   0.0000       0.622904        16.9501 
 200   0.0000       0.630630        17.1603 
 201   0.0000       0.637738        17.3537 
 202   0.0000       0.639828        17.4106 
 203   0.0000       0.642874        17.4935 
 204   0.0000       0.649411        17.6714 
 205   0.0000       0.653010        17.7693 
 206   0.0000       0.655657        17.8413 
 207   0.0000       0.659876        17.9561 
 208   0.0000       0.663559        18.0564 
 209   0.0000       0.666777        18.1439 
 210   0.0000       0.670179        18.2365 
 211   0.0000       0.676049        18.3962 
 212   0.0000       0.679651        18.4942 
 213   0.0000       0.686148        18.6710 
 214   0.0000       0.687716        18.7137 
 215   0.0000       0.698746        19.0138 
 216   0.0000       0.705921        19.2091 
 217   0.0000       0.713132        19.4053 
 218   0.0000       0.715177        19.4610 
 219   0.0000       0.732949        19.9446 
 220   0.0000       0.740973        20.1629 
 221   0.0000       0.741885        20.1877 
 222   0.0000       0.759150        20.6575 
 223   0.0000       0.764243        20.7961 
 224   0.0000       0.773653        21.0522 
 225   0.0000       0.793337        21.5878 
 226   0.0000       0.807278        21.9671 
 227   0.0000       0.829323        22.5670 
 228   0.0000       0.837743        22.7962 
 229   0.0000       0.851578        23.1726 
 230   0.0000       0.854445        23.2506 
 231   0.0000       0.875616        23.8267 
 232   0.0000       0.882488        24.0137 
 233   0.0000       0.893885        24.3239 
 234   0.0000       0.909268        24.7424 
 235   0.0000       0.916703        24.9448 
 236   0.0000       0.941718        25.6254 
 237   0.0000       0.949583        25.8395 
 238   0.0000       0.956661        26.0321 
 239   0.0000       0.968144        26.3445 
 240   0.0000       0.975738        26.5512 
 241   0.0000       0.985593        26.8193 
 242   0.0000       0.999992        27.2112 
 243   0.0000       1.009693        27.4752 
 244   0.0000       1.025420        27.9031 
 245   0.0000       1.034178        28.1414 
 246   0.0000       1.040007        28.3000 
 247   0.0000       1.057785        28.7838 
 248   0.0000       1.067650        29.0522 
 249   0.0000       1.085342        29.5337 
 250   0.0000       1.094998        29.7964 
 251   0.0000       1.100955        29.9585 
 252   0.0000       1.116508        30.3817 
 253   0.0000       1.124653        30.6034 
 254   0.0000       1.129692        30.7405 
 255   0.0000       1.139296        31.0018 
 256   0.0000       1.149297        31.2740 
 257   0.0000       1.176180        32.0055 
 258   0.0000       1.179140        32.0860 
 259   0.0000       1.189688        32.3731 
 260   0.0000       1.193129        32.4667 
 261   0.0000       1.198780        32.6205 
 262   0.0000       1.202534        32.7226 
 263   0.0000       1.211143        32.9569 
 264   0.0000       1.221875        33.2489 
 265   0.0000       1.227929        33.4137 
 266   0.0000       1.231610        33.5138 
 267   0.0000       1.238510        33.7016 
 268   0.0000       1.245044        33.8794 
 269   0.0000       1.252011        34.0689 
 270   0.0000       1.296721        35.2856 
 271   0.0000       1.312782        35.7226 
 272   0.0000       1.321987        35.9731 
 273   0.0000       1.337548        36.3965 
 274   0.0000       1.349396        36.7189 
 275   0.0000       1.363604        37.1056 
 276   0.0000       1.370839        37.3024 
 277   0.0000       1.391023        37.8517 
 278   0.0000       1.397278        38.0219 
 279   0.0000       1.410081        38.3702 
 280   0.0000       1.426106        38.8063 
 281   0.0000       1.438788        39.1514 
 282   0.0000       1.451827        39.5062 
 283   0.0000       1.462132        39.7866 
 284   0.0000       1.464770        39.8584 
 285   0.0000       1.469535        39.9881 
 286   0.0000       1.474106        40.1125 
 287   0.0000       1.485489        40.4222 
 288   0.0000       1.490401        40.5559 
 289   0.0000       1.492904        40.6240 
 290   0.0000       1.518910        41.3316 
 291   0.0000       1.556180        42.3458 
 292   0.0000       1.568977        42.6940 
 293   0.0000       1.583463        43.0882 
 294   0.0000       1.608806        43.7778 
 295   0.0000       1.613969        43.9183 
 296   0.0000       1.616904        43.9982 
 297   0.0000       1.625867        44.2421 
 298   0.0000       1.634897        44.4878 
 299   0.0000       1.638574        44.5879 
 300   0.0000       1.651802        44.9478 
 301   0.0000       1.659692        45.1625 
 302   0.0000       1.663693        45.2714 
 303   0.0000       1.671136        45.4739 
 304   0.0000       1.676281        45.6139 
 305   0.0000       1.680578        45.7309 
 306   0.0000       1.687377        45.9159 
 307   0.0000       1.688611        45.9494 
 308   0.0000       1.688773        45.9539 
 309   0.0000       1.694267        46.1034 
 310   0.0000       1.694607        46.1126 
 311   0.0000       1.696594        46.1667 
 312   0.0000       1.704464        46.3808 
 313   0.0000       1.722118        46.8612 
 314   0.0000       1.726933        46.9922 
 315   0.0000       1.737441        47.2782 
 316   0.0000       1.739775        47.3417 
 317   0.0000       1.746179        47.5160 
 318   0.0000       1.751830        47.6697 
 319   0.0000       1.759302        47.8730 
 320   0.0000       1.763618        47.9905 
 321   0.0000       1.768420        48.1212 
 322   0.0000       1.775544        48.3150 
 323   0.0000       1.776334        48.3365 
 324   0.0000       1.785020        48.5729 
 325   0.0000       1.792272        48.7702 
 326   0.0000       1.793651        48.8077 
 327   0.0000       1.802512        49.0488 
 328   0.0000       1.818624        49.4873 
 329   0.0000       1.821326        49.5608 
 330   0.0000       1.828854        49.7656 
 331   0.0000       1.839595        50.0579 
 332   0.0000       1.842585        50.1393 
 333   0.0000       1.858873        50.5825 
 334   0.0000       1.863907        50.7195 
 335   0.0000       1.872778        50.9609 
 336   0.0000       1.880837        51.1802 
 337   0.0000       1.883623        51.2560 
 338   0.0000       1.891313        51.4652 
 339   0.0000       1.908459        51.9318 
 340   0.0000       1.915168        52.1144 
 341   0.0000       1.919506        52.2324 
 342   0.0000       1.930097        52.5206 
 343   0.0000       1.932327        52.5813 
 344   0.0000       1.937138        52.7122 
 345   0.0000       1.949910        53.0598 
 346   0.0000       1.955916        53.2232 
 347   0.0000       1.960167        53.3388 
 348   0.0000       1.966837        53.5204 
 349   0.0000       1.987419        54.0804 
 350   0.0000       2.016864        54.8817 
 351   0.0000       2.018330        54.9216 
 352   0.0000       2.026481        55.1433 
 353   0.0000       2.051090        55.8130 
 354   0.0000       2.052646        55.8553 
 355   0.0000       2.059956        56.0542 
 356   0.0000       2.062389        56.1205 
 357   0.0000       2.072151        56.3861 
 358   0.0000       2.083316        56.6899 
 359   0.0000       2.088961        56.8435 
 360   0.0000       2.094383        56.9911 
 361   0.0000       2.110836        57.4388 
 362   0.0000       2.120762        57.7089 
 363   0.0000       2.131746        58.0077 
 364   0.0000       2.152240        58.5654 
 365   0.0000       2.166478        58.9529 
 366   0.0000       2.185341        59.4662 
 367   0.0000       2.207607        60.0720 
 368   0.0000       2.219744        60.4023 
 369   0.0000       2.225965        60.5716 
 370   0.0000       2.228061        60.6286 
 371   0.0000       2.243768        61.0560 
 372   0.0000       2.247240        61.1505 
 373   0.0000       2.266651        61.6787 
 374   0.0000       2.274127        61.8821 
 375   0.0000       2.280771        62.0629 
 376   0.0000       2.293136        62.3994 
 377   0.0000       2.303305        62.6761 
 378   0.0000       2.308636        62.8212 
 379   0.0000       2.320443        63.1425 
 380   0.0000       2.337774        63.6141 
 381   0.0000       2.381345        64.7997 
 382   0.0000       2.392801        65.1114 
 383   0.0000       2.398702        65.2720 
 384   0.0000       2.402354        65.3714 
 385   0.0000       2.417336        65.7791 
 386   0.0000       2.428185        66.0743 
 387   0.0000       2.443016        66.4778 
 388   0.0000       2.446727        66.5788 
 389   0.0000       2.470105        67.2150 
 390   0.0000       2.492388        67.8213 
 391   0.0000       2.512543        68.3698 
 392   0.0000       2.521689        68.6187 
 393   0.0000       2.525630        68.7259 
 394   0.0000       2.527993        68.7902 
[...]
      pz      :     1.001613  p :     3.151177
      px      :     1.084757
      py      :     1.064807
      dz2     :     0.018615  d :     0.066194
      dxz     :     0.008621
      dyz     :     0.015994
      dx2y2   :     0.011428
      dxy     :     0.011536
  6 S s       :     5.602941  s :     5.602941
      pz      :     3.144509  p :    10.084349
      px      :     3.578222
      py      :     3.361618
      dz2     :     0.024373  d :     0.090604
      dxz     :     0.011640
      dyz     :     0.025405
      dx2y2   :     0.009097
      dxy     :     0.020089
  7 C s       :     2.911885  s :     2.911885
      pz      :     1.024818  p :     3.136575
      px      :     1.090962
      py      :     1.020796
      dz2     :     0.016105  d :     0.083647
      dxz     :     0.021312
      dyz     :     0.016572
      dx2y2   :     0.017683
      dxy     :     0.011975
  8 C s       :     2.862239  s :     2.862239
      pz      :     1.023131  p :     3.033005
      px      :     0.968205
      py      :     1.041669
      dz2     :     0.020350  d :     0.127192
      dxz     :     0.032138
      dyz     :     0.021555
      dx2y2   :     0.038329
      dxy     :     0.014821
  9 N s       :     3.099022  s :     3.099022
      pz      :     1.338316  p :     3.868838
      px      :     1.332378
      py      :     1.198144
      dz2     :     0.009502  d :     0.061832
      dxz     :     0.008573
      dyz     :     0.014256
      dx2y2   :     0.015818
      dxy     :     0.013682
 10 C s       :     2.863495  s :     2.863495
      pz      :     0.941302  p :     2.823001
      px      :     0.935218
      py      :     0.946481
      dz2     :     0.037552  d :     0.240065
      dxz     :     0.031101
      dyz     :     0.049032
      dx2y2   :     0.070922
      dxy     :     0.051457
 11 O s       :     3.563480  s :     3.563480
      pz      :     1.483415  p :     4.601617
      px      :     1.554318
      py      :     1.563883
      dz2     :     0.004170  d :     0.029607
      dxz     :     0.003564
      dyz     :     0.010260
      dx2y2   :     0.005428
      dxy     :     0.006186
 12 C s       :     2.855982  s :     2.855982
      pz      :     0.999070  p :     2.844889
      px      :     0.987295
      py      :     0.858524
      dz2     :     0.057587  d :     0.253429
      dxz     :     0.108765
      dyz     :     0.046243
      dx2y2   :     0.017833
      dxy     :     0.023002
 13 O s       :     3.556938  s :     3.556938
      pz      :     1.437495  p :     4.603899
      px      :     1.745036
      py      :     1.421367
      dz2     :     0.014382  d :     0.029451
      dxz     :     0.005866
      dyz     :     0.008077
      dx2y2   :     0.000605
      dxy     :     0.000521
 14 N s       :     3.059778  s :     3.059778
      pz      :     1.183764  p :     3.878134
      px      :     1.149949
      py      :     1.544421
      dz2     :     0.014438  d :     0.052302
      dxz     :     0.016723
      dyz     :     0.003580
      dx2y2   :     0.010308
      dxy     :     0.007252
 15 C s       :     2.852464  s :     2.852464
      pz      :     1.038614  p :     3.015673
      px      :     0.912557
      py      :     1.064502
      dz2     :     0.014921  d :     0.124638
      dxz     :     0.031481
      dyz     :     0.025351
      dx2y2   :     0.030236
      dxy     :     0.022649
 16 C s       :     2.851314  s :     2.851314
      pz      :     1.046857  p :     3.090619
      px      :     1.030039
      py      :     1.013722
      dz2     :     0.007920  d :     0.082993
      dxz     :     0.020640
      dyz     :     0.020968
      dx2y2   :     0.022436
      dxy     :     0.011028
 17 C s       :     2.862544  s :     2.862544
      pz      :     1.036620  p :     3.064232
      px      :     1.031289
      py      :     0.996323
      dz2     :     0.020426  d :     0.103646
      dxz     :     0.029312
      dyz     :     0.015281
      dx2y2   :     0.020586
      dxy     :     0.018041
 18 C s       :     2.872060  s :     2.872060
      pz      :     1.024725  p :     3.068611
      px      :     1.047575
      py      :     0.996312
      dz2     :     0.016011  d :     0.085311
      dxz     :     0.025679
      dyz     :     0.011452
      dx2y2   :     0.015695
      dxy     :     0.016473
 19 C s       :     2.872183  s :     2.872183
      pz      :     1.014761  p :     3.068412
      px      :     1.064254
      py      :     0.989396
      dz2     :     0.014226  d :     0.086160
      dxz     :     0.024178
      dyz     :     0.009625
      dx2y2   :     0.019607
      dxy     :     0.018525
 20 C s       :     2.872435  s :     2.872435
      pz      :     1.033375  p :     3.076828
      px      :     1.039320
      py      :     1.004133
      dz2     :     0.018667  d :     0.085659
      dxz     :     0.022389
      dyz     :     0.014311
      dx2y2   :     0.017394
      dxy     :     0.012898
 21 C s       :     2.872297  s :     2.872297
      pz      :     1.028352  p :     3.074046
      px      :     1.049713
      py      :     0.995981
      dz2     :     0.016160  d :     0.086240
      dxz     :     0.025616
      dyz     :     0.011665
      dx2y2   :     0.015785
      dxy     :     0.017015
 22 C s       :     2.873367  s :     2.873367
      pz      :     1.017545  p :     3.078759
      px      :     1.057665
      py      :     1.003549
      dz2     :     0.014060  d :     0.085753
      dxz     :     0.023988
      dyz     :     0.009522
      dx2y2   :     0.019658
      dxy     :     0.018526
 23 C s       :     2.855791  s :     2.855791
      pz      :     1.032909  p :     2.798940
      px      :     0.910720
      py      :     0.855311
      dz2     :     0.073179  d :     0.284513
      dxz     :     0.087062
      dyz     :     0.050037
      dx2y2   :     0.033013
      dxy     :     0.041221
 24 O s       :     3.556167  s :     3.556167
      pz      :     1.483812  p :     4.584232
      px      :     1.640241
      py      :     1.460179
      dz2     :     0.012570  d :     0.030429
      dxz     :     0.006457
      dyz     :     0.009094
      dx2y2   :     0.001193
      dxy     :     0.001115
 25 O s       :     3.460904  s :     3.460904
      pz      :     1.602350  p :     4.558993
      px      :     1.340945
      py      :     1.615697
      dz2     :     0.005586  d :     0.031961
      dxz     :     0.009603
      dyz     :     0.003455
      dx2y2   :     0.005278
      dxy     :     0.008039
 26 C s       :     2.865730  s :     2.865730
      pz      :     0.944353  p :     2.960974
      px      :     0.927257
      py      :     1.089365
      dz2     :     0.020011  d :     0.106775
      dxz     :     0.034665
      dyz     :     0.017531
      dx2y2   :     0.012917
      dxy     :     0.021651
 27 H s       :     0.899824  s :     0.899824
      pz      :     0.016381  p :     0.068570
      px      :     0.034737
      py      :     0.017452
 28 H s       :     0.902347  s :     0.902347
      pz      :     0.027519  p :     0.068669
      px      :     0.028512
      py      :     0.012638
 29 H s       :     0.885718  s :     0.885718
      pz      :     0.031738  p :     0.071019
      px      :     0.012189
      py      :     0.027092
 30 H s       :     0.795185  s :     0.795185
      pz      :     0.070283  p :     0.127334
      px      :     0.017471
      py      :     0.039581
 31 H s       :     0.885796  s :     0.885796
      pz      :     0.029314  p :     0.067334
      px      :     0.025125
      py      :     0.012894
 32 H s       :     0.903412  s :     0.903412
      pz      :     0.022799  p :     0.065214
      px      :     0.012204
      py      :     0.030210
 33 H s       :     0.885767  s :     0.885767
      pz      :     0.026698  p :     0.069244
      px      :     0.010149
      py      :     0.032397
 34 H s       :     0.942543  s :     0.942543
      pz      :     0.027073  p :     0.064255
      px      :     0.028684
      py      :     0.008498
 35 H s       :     0.898406  s :     0.898406
      pz      :     0.020263  p :     0.066455
      px      :     0.027312
      py      :     0.018881
 36 H s       :     0.901638  s :     0.901638
      pz      :     0.014658  p :     0.065956
      px      :     0.037985
      py      :     0.013314
 37 H s       :     0.900372  s :     0.900372
      pz      :     0.031976  p :     0.065750
      px      :     0.012177
      py      :     0.021597
 38 H s       :     0.904389  s :     0.904389
      pz      :     0.032063  p :     0.066458
      px      :     0.012058
      py      :     0.022336
 39 H s       :     0.902006  s :     0.902006
      pz      :     0.019805  p :     0.065776
      px      :     0.027022
      py      :     0.018949
 40 H s       :     0.891599  s :     0.891599
      pz      :     0.012048  p :     0.070477
      px      :     0.044240
      py      :     0.014189
 41 H s       :     0.905856  s :     0.905856
      pz      :     0.016047  p :     0.064805
      px      :     0.021214
      py      :     0.027545
 42 H s       :     0.903278  s :     0.903278
      pz      :     0.021367  p :     0.064809
      px      :     0.013764
      py      :     0.029678
 43 H s       :     0.902106  s :     0.902106
      pz      :     0.014727  p :     0.063169
      px      :     0.025432
      py      :     0.023010
 44 H s       :     0.907120  s :     0.907120
      pz      :     0.012215  p :     0.064627
      px      :     0.015263
      py      :     0.037150
 45 H s       :     0.904961  s :     0.904961
      pz      :     0.033439  p :     0.065594
      px      :     0.014894
      py      :     0.017261


                      *****************************
                      * MAYER POPULATION ANALYSIS *
                      *****************************

  NA   - Mulliken gross atomic population
  ZA   - Total nuclear charge
  QA   - Mulliken gross atomic charge
  VA   - Mayer's total valence
  BVA  - Mayer's bonded valence
  FA   - Mayer's free valence

  ATOM       NA         ZA         QA         VA         BVA        FA
  0 C      5.8996     6.0000     0.1004     3.8409     3.8409    -0.0000
  1 C      6.2918     6.0000    -0.2918     4.1488     4.1488    -0.0000
  2 H      0.9692     1.0000     0.0308     1.0077     1.0077    -0.0000
  3 H      0.9614     1.0000     0.0386     1.0008     1.0008    -0.0000
  4 H      0.9706     1.0000     0.0294     1.0037     1.0037    -0.0000
  5 C      5.9265     6.0000     0.0735     3.8543     3.8543    -0.0000
  6 S     16.0410    16.0000    -0.0410     2.1245     2.1245    -0.0000
  7 C      6.0404     6.0000    -0.0404     3.9472     3.9472    -0.0000
  8 C      6.0068     6.0000    -0.0068     3.8961     3.8961    -0.0000
  9 N      7.1803     7.0000    -0.1803     3.1605     3.1605    -0.0000
 10 C      5.8389     6.0000     0.1611     4.1699     4.1699    -0.0000
 11 O      8.2446     8.0000    -0.2446     2.2706     2.2706    -0.0000
 12 C      5.8873     6.0000     0.1127     4.2115     4.2115    -0.0000
 13 O      8.2144     8.0000    -0.2144     2.3142     2.3142    -0.0000
 14 N      7.1263     7.0000    -0.1263     3.2383     3.2383    -0.0000
 15 C      5.9507     6.0000     0.0493     3.9883     3.9883    -0.0000
 16 C      5.9101     6.0000     0.0899     3.9506     3.9506    -0.0000
 17 C      6.0276     6.0000    -0.0276     3.9736     3.9736    -0.0000
 18 C      6.0201     6.0000    -0.0201     3.8562     3.8562    -0.0000
 19 C      5.9984     6.0000     0.0016     3.8446     3.8446    -0.0000
 20 C      6.0005     6.0000    -0.0005     3.8327     3.8327    -0.0000
 21 C      6.0034     6.0000    -0.0034     3.8415     3.8415    -0.0000
 22 C      6.0314     6.0000    -0.0314     3.8554     3.8554    -0.0000
 23 C      5.8763     6.0000     0.1237     4.2745     4.2745    -0.0000
 24 O      8.2174     8.0000    -0.2174     2.2879     2.2879    -0.0000
 25 O      8.2433     8.0000    -0.2433     2.2927     2.2927    -0.0000
 26 C      5.8873     6.0000     0.1127     3.9054     3.9054    -0.0000
 27 H      0.9330     1.0000     0.0670     0.9985     0.9985    -0.0000
 28 H      0.9231     1.0000     0.0769     0.9725     0.9725    -0.0000
 29 H      0.9412     1.0000     0.0588     1.0184     1.0184    -0.0000
 30 H      0.8664     1.0000     0.1336     1.0329     1.0329    -0.0000
 31 H      0.9471     1.0000     0.0529     1.0070     1.0070    -0.0000
 32 H      0.9880     1.0000     0.0120     1.0003     1.0003    -0.0000
 33 H      0.9435     1.0000     0.0565     1.0174     1.0174    -0.0000
 34 H      0.9943     1.0000     0.0057     0.9911     0.9911    -0.0000
 35 H      0.9945     1.0000     0.0055     0.9883     0.9883    -0.0000
 36 H      0.9961     1.0000     0.0039     0.9788     0.9788    -0.0000
 37 H      0.9954     1.0000     0.0046     0.9787     0.9787    -0.0000
 38 H      1.0065     1.0000    -0.0065     0.9886     0.9886    -0.0000
 39 H      0.9989     1.0000     0.0011     0.9784     0.9784    -0.0000
 40 H      0.9350     1.0000     0.0650     1.0505     1.0505    -0.0000
 41 H      0.9726     1.0000     0.0274     1.0015     1.0015    -0.0000
 42 H      0.9661     1.0000     0.0339     0.9926     0.9926    -0.0000
 43 H      0.9403     1.0000     0.0597     0.9888     0.9888    -0.0000
 44 H      0.9488     1.0000     0.0512     0.9978     0.9978    -0.0000
 45 H      0.9435     1.0000     0.0565     0.9975     0.9975    -0.0000

  Mayer bond orders larger than 0.100000
B(  0-C ,  1-C ) :   1.0194 B(  0-C ,  2-H ) :   0.9512 B(  0-C ,  3-H ) :   0.9545 
B(  0-C ,  4-H ) :   0.9410 B(  1-C ,  5-C ) :   1.0389 B(  1-C ,  6-S ) :   0.9947 
B(  1-C ,  9-N ) :   0.8851 B(  5-C , 40-H ) :   0.9359 B(  5-C , 41-H ) :   0.9452 
B(  5-C , 42-H ) :   0.9489 B(  6-S ,  7-C ) :   1.0046 B(  7-C ,  8-C ) :   1.0373 
B(  7-C , 27-H ) :   0.9377 B(  7-C , 28-H ) :   0.9333 B(  8-C ,  9-N ) :   1.0102 
B(  8-C , 12-C ) :   0.8661 B(  8-C , 29-H ) :   0.8770 B(  9-N , 10-C ) :   1.1602 
B( 10-C , 11-O ) :   1.9954 B( 10-C , 34-H ) :   0.9194 B( 12-C , 13-O ) :   2.0211 
B( 12-C , 14-N ) :   1.2274 B( 14-N , 15-C ) :   0.9907 B( 14-N , 30-H ) :   0.8898 
B( 15-C , 16-C ) :   1.0532 B( 15-C , 23-C ) :   0.9073 B( 15-C , 33-H ) :   0.8953 
B( 16-C , 17-C ) :   1.0661 B( 16-C , 31-H ) :   0.9037 B( 16-C , 32-H ) :   0.9053 
B( 17-C , 18-C ) :   1.3770 B( 17-C , 22-C ) :   1.3754 B( 18-C , 19-C ) :   1.3832 
B( 18-C , 35-H ) :   0.9754 B( 19-C , 20-C ) :   1.3792 B( 19-C , 37-H ) :   0.9743 
B( 20-C , 21-C ) :   1.3844 B( 20-C , 36-H ) :   0.9764 B( 21-C , 22-C ) :   1.3736 
B( 21-C , 39-H ) :   0.9746 B( 22-C , 38-H ) :   0.9734 B( 23-C , 24-O ) :   2.0253 
B( 23-C , 25-O ) :   1.2272 B( 24-O , 25-O ) :   0.1005 B( 25-O , 26-C ) :   0.9204 
B( 26-C , 43-H ) :   0.9745 B( 26-C , 44-H ) :   0.9667 B( 26-C , 45-H ) :   0.9654 


-------
TIMINGS
-------

Total SCF time: 0 days 0 hours 0 min 26 sec 

Total time                  ....      26.853 sec
Sum of individual times     ....      26.422 sec  ( 98.4%)

Fock matrix formation       ....      23.792 sec  ( 88.6%)
  Split-RI-J                ....      10.832 sec  ( 45.5% of F)
  XC integration            ....      12.908 sec  ( 54.3% of F)
    Basis function eval.    ....       5.763 sec  ( 44.6% of XC)
    Density eval.           ....       3.239 sec  ( 25.1% of XC)
    XC-Functional eval.     ....       0.589 sec  (  4.6% of XC)
    XC-Potential eval.      ....       2.719 sec  ( 21.1% of XC)
Diagonalization             ....       0.017 sec  (  0.1%)
Density matrix formation    ....       0.037 sec  (  0.1%)
Population analysis         ....       0.054 sec  (  0.2%)
Initial guess               ....       0.026 sec  (  0.1%)
Orbital Transformation      ....       0.000 sec  (  0.0%)
Orbital Orthonormalization  ....       0.017 sec  (  0.1%)
DIIS solution               ....       0.002 sec  (  0.0%)
SOSCF solution              ....       0.084 sec  (  0.3%)
Grid generation             ....       2.409 sec  (  9.0%)

Maximum memory used throughout the entire SCF-calculation: 158.1 MB


-------------------------------------------------------------------------------
                          DFT DISPERSION CORRECTION                            
                                                                               
                              DFTD3 V3.1  Rev 1                                
                          USING Becke-Johnson damping                          
-------------------------------------------------------------------------------
The BP86 functional is recognized
Active option DFTDOPT                   ...         4   

molecular C6(AA) [au] = 22700.003462 


            DFT-D V3
 parameters
 s6 scaling factor         :     1.0000 
 a1 scaling factor         :     0.3946 
 s8 scaling factor         :     3.2822 
 a2 scaling factor         :     4.8516 
 ad hoc parameters k1-k3   :    16.0000     1.3333    -4.0000 

 Edisp/kcal,au: -60.542269772267  -0.096480237855 
 E6   /kcal   : -23.125519971 
 E8   /kcal   : -37.416749801 
 % E8         :  61.802687514 

-------------------------   ----------------
Dispersion correction           -0.096480238
-------------------------   ----------------


-------------------------   --------------------
FINAL SINGLE POINT ENERGY     -1468.941904455525
-------------------------   --------------------

                                *** OPTIMIZATION RUN DONE ***

                            ***************************************
                            *     ORCA property calculations      *
                            ***************************************

                                    ---------------------
                                    Active property flags
                                    ---------------------
   (+) Dipole Moment


------------------------------------------------------------------------------
                       ORCA ELECTRIC PROPERTIES CALCULATION
------------------------------------------------------------------------------

Dipole Moment Calculation                       ... on
Quadrupole Moment Calculation                   ... off
Polarizability Calculation                      ... off
GBWName                                         ... input.gbw
Electron density                                ... input.scfp
The origin for moment calculation is the CENTER OF MASS  = ( 7.277657,  2.989002 -0.118749)

-------------
DIPOLE MOMENT
-------------
                                X             Y             Z
Electronic contribution:      0.73664      -1.83027      -3.67270
Nuclear contribution   :      0.05707       2.60388       3.29246
                        -----------------------------------------
Total Dipole Moment    :      0.79370       0.77361      -0.38025
                        -----------------------------------------
Magnitude (a.u.)       :      1.17176
Magnitude (Debye)      :      2.97838



--------------------
Rotational spectrum 
--------------------
 
Rotational constants in cm-1:     0.014527     0.003554     0.003291 
Rotational constants in MHz :   435.494185   106.538433    98.669169 

 Dipole components along the rotational axes: 
x,y,z [a.u.] :     0.793947    -0.165023     0.845835 
x,y,z [Debye]:     2.018053    -0.419456     2.149943 

 

Timings for individual modules:

Sum of individual times         ...     2782.782 sec (=  46.380 min)
GTO integral calculation        ...       15.182 sec (=   0.253 min)   0.5 %
SCF iterations                  ...     1748.476 sec (=  29.141 min)  62.8 %
SCF Gradient evaluation         ...     1010.745 sec (=  16.846 min)  36.3 %
Geometry relaxation             ...        8.380 sec (=   0.140 min)   0.3 %
                             ****ORCA TERMINATED NORMALLY****
TOTAL RUN TIME: 0 days 0 hours 46 minutes 34 seconds 710 msec
