
                                 *****************
                                 * O   R   C   A *
                                 *****************

                                            #,                                       
                                            ###                                      
                                            ####                                     
                                            #####                                    
                                            ######                                   
                                           ########,                                 
                                     ,,################,,,,,                         
                               ,,#################################,,                 
                          ,,##########################################,,             
                       ,#########################################, ''#####,          
                    ,#############################################,,   '####,        
                  ,##################################################,,,,####,       
                ,###########''''           ''''###############################       
              ,#####''   ,,,,##########,,,,          '''####'''          '####       
            ,##' ,,,,###########################,,,                        '##       
           ' ,,###''''                  '''############,,,                           
         ,,##''                                '''############,,,,        ,,,,,,###''
      ,#''                                            '''#######################'''  
     '                                                          ''''####''''         
             ,#######,   #######,   ,#######,      ##                                
            ,#'     '#,  ##    ##  ,#'     '#,    #''#        ######   ,####,        
            ##       ##  ##   ,#'  ##            #'  '#       #        #'  '#        
            ##       ##  #######   ##           ,######,      #####,   #    #        
            '#,     ,#'  ##    ##  '#,     ,#' ,#      #,         ##   #,  ,#        
             '#######'   ##     ##  '#######'  #'      '#     #####' # '####'        



                  #######################################################
                  #                        -***-                        #
                  #          Department of theory and spectroscopy      #
                  #    Directorship and core code : Frank Neese         #
                  #        Max Planck Institute fuer Kohlenforschung    #
                  #                Kaiser Wilhelm Platz 1               #
                  #                 D-45470 Muelheim/Ruhr               #
                  #                      Germany                        #
                  #                                                     #
                  #                  All rights reserved                #
                  #                        -***-                        #
                  #######################################################


                         Program Version 5.0.4 -  RELEASE  -


 With contributions from (in alphabetic order):
   Daniel Aravena         : Magnetic Suceptibility
   Michael Atanasov       : Ab Initio Ligand Field Theory (pilot matlab implementation)
   Alexander A. Auer      : GIAO ZORA, VPT2 properties, NMR spectrum
   Ute Becker             : Parallelization
   Giovanni Bistoni       : ED, misc. LED, open-shell LED, HFLD
   Martin Brehm           : Molecular dynamics
   Dmytro Bykov           : SCF Hessian
   Vijay G. Chilkuri      : MRCI spin determinant printing, contributions to CSF-ICE
   Dipayan Datta          : RHF DLPNO-CCSD density
   Achintya Kumar Dutta   : EOM-CC, STEOM-CC
   Dmitry Ganyushin       : Spin-Orbit,Spin-Spin,Magnetic field MRCI
   Miquel Garcia          : C-PCM and meta-GGA Hessian, CC/C-PCM, Gaussian charge scheme
   Yang Guo               : DLPNO-NEVPT2, F12-NEVPT2, CIM, IAO-localization
   Andreas Hansen         : Spin unrestricted coupled pair/coupled cluster methods
   Benjamin Helmich-Paris : MC-RPA, TRAH-SCF, COSX integrals
   Lee Huntington         : MR-EOM, pCC
   Robert Izsak           : Overlap fitted RIJCOSX, COSX-SCS-MP3, EOM
   Marcus Kettner         : VPT2
   Christian Kollmar      : KDIIS, OOCD, Brueckner-CCSD(T), CCSD density, CASPT2, CASPT2-K
   Simone Kossmann        : Meta GGA functionals, TD-DFT gradient, OOMP2, MP2 Hessian
   Martin Krupicka        : Initial AUTO-CI
   Lucas Lang             : DCDCAS
   Marvin Lechner         : AUTO-CI (C++ implementation), FIC-MRCC
   Dagmar Lenk            : GEPOL surface, SMD
   Dimitrios Liakos       : Extrapolation schemes; Compound Job, initial MDCI parallelization
   Dimitrios Manganas     : Further ROCIS development; embedding schemes
   Dimitrios Pantazis     : SARC Basis sets
   Anastasios Papadopoulos: AUTO-CI, single reference methods and gradients
   Taras Petrenko         : DFT Hessian,TD-DFT gradient, ASA, ECA, R-Raman, ABS, FL, XAS/XES, NRVS
   Peter Pinski           : DLPNO-MP2, DLPNO-MP2 Gradient
   Christoph Reimann      : Effective Core Potentials
   Marius Retegan         : Local ZFS, SOC
   Christoph Riplinger    : Optimizer, TS searches, QM/MM, DLPNO-CCSD(T), (RO)-DLPNO pert. Triples
   Tobias Risthaus        : Range-separated hybrids, TD-DFT gradient, RPA, STAB
   Michael Roemelt        : Original ROCIS implementation
   Masaaki Saitow         : Open-shell DLPNO-CCSD energy and density
   Barbara Sandhoefer     : DKH picture change effects
   Avijit Sen             : IP-ROCIS
   Kantharuban Sivalingam : CASSCF convergence, NEVPT2, FIC-MRCI
   Bernardo de Souza      : ESD, SOC TD-DFT
   Georgi Stoychev        : AutoAux, RI-MP2 NMR, DLPNO-MP2 response
   Willem Van den Heuvel  : Paramagnetic NMR
   Boris Wezisla          : Elementary symmetry handling
   Frank Wennmohs         : Technical directorship


 We gratefully acknowledge several colleagues who have allowed us to
 interface, adapt or use parts of their codes:
   Stefan Grimme, W. Hujo, H. Kruse, P. Pracht,  : VdW corrections, initial TS optimization,
                  C. Bannwarth, S. Ehlert          DFT functionals, gCP, sTDA/sTD-DF
   Ed Valeev, F. Pavosevic, A. Kumar             : LibInt (2-el integral package), F12 methods
   Garnet Chan, S. Sharma, J. Yang, R. Olivares  : DMRG
   Ulf Ekstrom                                   : XCFun DFT Library
   Mihaly Kallay                                 : mrcc  (arbitrary order and MRCC methods)
   Jiri Pittner, Ondrej Demel                    : Mk-CCSD
   Frank Weinhold                                : gennbo (NPA and NBO analysis)
   Christopher J. Cramer and Donald G. Truhlar   : smd solvation model
   Lars Goerigk                                  : TD-DFT with DH, B97 family of functionals
   V. Asgeirsson, H. Jonsson                     : NEB implementation
   FAccTs GmbH                                   : IRC, NEB, NEB-TS, DLPNO-Multilevel, CI-OPT
                                                   MM, QMMM, 2- and 3-layer-ONIOM, Crystal-QMMM,
                                                   LR-CPCM, SF, NACMEs, symmetry and pop. for TD-DFT,
                                                   nearIR, NL-DFT gradient (VV10), updates on ESD,
                                                   ML-optimized integration grids
   S Lehtola, MJT Oliveira, MAL Marques          : LibXC Library
   Liviu Ungur et al                             : ANISO software


 Your calculation uses the libint2 library for the computation of 2-el integrals
 For citations please refer to: http://libint.valeyev.net

 Your ORCA version has been built with support for libXC version: 5.1.0
 For citations please refer to: https://tddft.org/programs/libxc/

 This ORCA versions uses:
   CBLAS   interface :  Fast vector & matrix operations
   LAPACKE interface :  Fast linear algebra routines
   SCALAPACK package :  Parallel linear algebra routines
   Shared memory     :  Shared parallel matrices


Your calculation utilizes the atom-pairwise dispersion correction
with the Becke-Johnson damping scheme (D3BJ)
Cite in your paper:
S.Grimme, S.Ehrlich, L.Goerigk, J Comput Chem, (2011), 32, 1456–1465 
S.Grimme, J.Antony, S.Ehrlich and H.Krieg, J.Chem.Phys., 132, (2010), 154104 
   

================================================================================

----- Orbital basis set information -----
Your calculation utilizes the basis: def2-SVP
   F. Weigend and R. Ahlrichs, Phys. Chem. Chem. Phys. 7, 3297 (2005).

----- AuxJ basis set information -----
Your calculation utilizes the auxiliary basis: def2/J
   F. Weigend, Phys. Chem. Chem. Phys. 8, 1057 (2006).

================================================================================
                                        WARNINGS
                       Please study these warnings very carefully!
================================================================================


WARNING: Geometry Optimization
  ===> : Switching off AutoStart
         For restart on a previous wavefunction, please use MOREAD

INFO   : the flag for use of the SHARK integral package has been found!

================================================================================
                                       INPUT FILE
================================================================================
NAME = input.inp
|  1> %pal nprocs 1 END
|  2> %MaxCore 3000
|  3> 
|  4> !BP86 D3BJ DEF2-SVP TightSCF
|  5> !OPT
|  6> 
|  7> * xyz 0 1 
|  8> C          0.14660        1.27420        0.34370
|  9> C         -0.63690        0.18400        0.01750
| 10> C         -2.02660        0.27560       -0.09020
| 11> C         -2.62840        1.52060        0.14760
| 12> C         -1.84320        2.63620        0.49190
| 13> C         -0.44560        2.52390        0.59600
| 14> Cl         0.49600        3.93500        1.05340
| 15> N          0.14500       -0.96290       -0.15740
| 16> C          1.42920       -0.62140        0.05680
| 17> O          2.33590       -1.43730        0.00520
| 18> C          1.60210        0.85790        0.37630
| 19> O          2.11260        1.05430        1.67150
| 20> C          2.42850        1.63230       -0.68630
| 21> C          3.89390        1.25010       -0.73400
| 22> H          2.34410        2.70930       -0.46790
| 23> H          1.98840        1.47590       -1.69550
| 24> O          4.20510        0.11990       -1.07390
| 25> C          4.97950        2.20380       -0.41140
| 26> C          4.85780        3.52210       -0.00350
| 27> C          6.14290        3.98130        0.17380
| 28> C          6.97420        2.92580       -0.13230
| 29> O          6.25360        1.88260       -0.47600
| 30> H         -3.70320        1.62580        0.07410
| 31> H          3.95650        4.09720        0.15350
| 32> H          6.44060        4.97170        0.49090
| 33> H          8.05540        2.93820       -0.09880
| 34> H         -2.32500        3.58700        0.68110
| 35> H         -0.19540       -1.90840       -0.38620
| 36> H          2.96960        0.55780        1.73630
| 37> Cl        -3.00820       -1.11960       -0.50410
| 38> **                         ****END OF INPUT****
================================================================================

                       *****************************
                       * Geometry Optimization Run *
                       *****************************

Geometry optimization settings:
Update method            Update   .... BFGS
Choice of coordinates    CoordSys .... Z-matrix Internals
Initial Hessian          InHess   .... Almoef's Model

Convergence Tolerances:
Energy Change            TolE     ....  5.0000e-06 Eh
Max. Gradient            TolMAXG  ....  3.0000e-04 Eh/bohr
RMS Gradient             TolRMSG  ....  1.0000e-04 Eh/bohr
Max. Displacement        TolMAXD  ....  4.0000e-03 bohr
RMS Displacement         TolRMSD  ....  2.0000e-03 bohr
Strict Convergence                ....  False
------------------------------------------------------------------------------
                        ORCA OPTIMIZATION COORDINATE SETUP
------------------------------------------------------------------------------

The optimization will be done in new redundant internal coordinates
Making redundant internal coordinates   ...  (new redundants) done
Evaluating the initial hessian          ...  (Almloef) done
Evaluating the coordinates              ...  done
Calculating the B-matrix                .... done
Calculating the G-matrix                .... done
Diagonalizing the G-matrix              .... done
Small eigenvalue found = 4.898e-03
Small eigenvalue found = 1.196e-02
Small eigenvalue found = 2.953e-02
The first mode is                       ....   83
The number of degrees of freedom        ....   84

    -----------------------------------------------------------------
                    Redundant Internal Coordinates


    -----------------------------------------------------------------
         Definition                    Initial Value    Approx d2E/dq
    -----------------------------------------------------------------
      1. B(C   1,C   0)                  1.3816         0.644381   
      2. B(C   2,C   1)                  1.3969         0.609217   
      3. B(C   3,C   2)                  1.4031         0.595403   
      4. B(C   4,C   3)                  1.4070         0.586973   
      5. B(C   5,C   4)                  1.4060         0.589209   
      6. B(C   5,C   0)                  1.4057         0.589693   
      7. B(Cl  6,C   5)                  1.7570         0.364098   
      8. B(N   7,C   1)                  1.3990         0.541301   
      9. B(C   8,N   7)                  1.3460         0.657809   
     10. B(O   9,C   8)                  1.2208         1.041725   
     11. B(C  10,C   8)                  1.5233         0.382948   
     12. B(C  10,C   0)                  1.5142         0.395877   
     13. B(O  11,C  10)                  1.4060         0.527729   
     14. B(C  12,C  10)                  1.5530         0.343330   
     15. B(C  13,C  12)                  1.5152         0.394487   
     16. B(H  14,C  12)                  1.1022         0.344371   
     17. B(H  15,C  12)                  1.1120         0.332093   
     18. B(O  16,C  13)                  1.2205         1.042871   
     19. B(C  17,C  13)                  1.4806         0.447931   
     20. B(C  18,C  17)                  1.3853         0.635634   
     21. B(C  19,C  18)                  1.3761         0.657415   
     22. B(C  20,C  19)                  1.3780         0.652997   
     23. B(O  21,C  20)                  1.3136         0.740793   
     24. B(O  21,C  17)                  1.3156         0.735622   
     25. B(H  22,C   3)                  1.0824         0.370249   
     26. B(H  23,C  18)                  1.0806         0.372730   
     27. B(H  24,C  19)                  1.0817         0.371252   
     28. B(H  25,C  20)                  1.0818         0.371126   
     29. B(H  26,C   4)                  1.0826         0.370070   
     30. B(H  27,N   7)                  1.0306         0.401131   
     31. B(H  28,O  11)                  0.9926         0.461351   
     32. B(Cl 29,C   2)                  1.7554         0.366235   
     33. A(C   1,C   0,C  10)          109.4661         0.403482   
     34. A(C   5,C   0,C  10)          130.2019         0.397232   
     35. A(C   1,C   0,C   5)          120.3293         0.433165   
     36. A(C   2,C   1,N   7)          126.8790         0.419557   
     37. A(C   0,C   1,N   7)          111.0663         0.423782   
     38. A(C   0,C   1,C   2)          122.0490         0.435712   
     39. A(C   3,C   2,Cl 29)          120.3554         0.410020   
     40. A(C   1,C   2,C   3)          118.1524         0.429564   
     41. A(C   1,C   2,Cl 29)          121.4918         0.411691   
     42. A(C   2,C   3,H  22)          120.0401         0.352152   
     43. A(C   4,C   3,H  22)          119.5832         0.351304   
     44. A(C   2,C   3,C   4)          120.3751         0.426709   
     45. A(C   5,C   4,H  26)          119.9747         0.351501   
     46. A(C   3,C   4,H  26)          119.3920         0.351276   
     47. A(C   3,C   4,C   5)          120.6328         0.425910   
     48. A(C   0,C   5,Cl  6)          122.3399         0.408896   
     49. A(C   0,C   5,C   4)          118.4561         0.426263   
     50. A(C   4,C   5,Cl  6)          119.1996         0.408837   
     51. A(C   8,N   7,H  27)          125.6769         0.357658   
     52. A(C   1,N   7,C   8)          107.7787         0.422581   
     53. A(C   1,N   7,H  27)          126.5286         0.346062   
     54. A(N   7,C   8,C  10)          112.8346         0.400008   
     55. A(N   7,C   8,O   9)          122.1613         0.475858   
     56. A(O   9,C   8,C  10)          125.0009         0.434112   
     57. A(O  11,C  10,C  12)          111.5587         0.377654   
     58. A(C   8,C  10,C  12)          113.6501         0.359673   
     59. A(C   0,C  10,C  12)          111.0805         0.361715   
     60. A(C   8,C  10,O  11)          111.7217         0.384878   
     61. A(C   0,C  10,O  11)          109.2958         0.387110   
     62. A(C   0,C  10,C   8)           98.8225         0.368539   
     63. A(C  10,O  11,H  28)          107.6845         0.352810   
     64. A(H  14,C  12,H  15)          106.6759         0.285181   
     65. A(C  13,C  12,H  15)          108.5850         0.322912   
     66. A(C  10,C  12,H  15)          109.8906         0.315673   
     67. A(C  13,C  12,H  14)          109.0741         0.324842   
     68. A(C  10,C  12,H  14)          108.1157         0.317543   
     69. A(C  10,C  12,C  13)          114.2308         0.361498   
     70. A(O  16,C  13,C  17)          118.0464         0.446664   
     71. A(C  12,C  13,C  17)          122.6696         0.378404   
     72. A(C  12,C  13,O  16)          119.2707         0.436525   
     73. A(C  18,C  17,O  21)          109.3832         0.446742   
     74. A(C  13,C  17,O  21)          122.8301         0.419497   
     75. A(C  13,C  17,C  18)          127.7861         0.411400   
     76. A(C  19,C  18,H  23)          125.6318         0.358527   
     77. A(C  17,C  18,H  23)          128.4990         0.356480   
     78. A(C  17,C  18,C  19)          105.8691         0.440649   
     79. A(C  20,C  19,H  24)          126.8995         0.357874   
     80. A(C  18,C  19,H  24)          126.8912         0.358285   
     81. A(C  18,C  19,C  20)          106.2092         0.442801   
     82. A(O  21,C  20,H  25)          124.4340         0.363364   
     83. A(C  19,C  20,H  25)          125.9646         0.357854   
     84. A(C  19,C  20,O  21)          109.6014         0.449502   
     85. A(C  17,O  21,C  20)          108.9370         0.456308   
     86. D(N   7,C   1,C   0,C   5)   -178.4179         0.028876   
     87. D(C   2,C   1,C   0,C   5)      0.7656         0.028876   
     88. D(N   7,C   1,C   0,C  10)      1.0389         0.028876   
     89. D(C   2,C   1,C   0,C  10)   -179.7775         0.028876   
     90. D(C   3,C   2,C   1,C   0)     -0.1886         0.025629   
     91. D(Cl 29,C   2,C   1,C   0)   -179.9405         0.025629   
     92. D(C   3,C   2,C   1,N   7)    178.8590         0.025629   
     93. D(Cl 29,C   2,C   1,N   7)     -0.8930         0.025629   
     94. D(H  22,C   3,C   2,Cl 29)     -0.1451         0.024419   
     95. D(C   4,C   3,C   2,Cl 29)    179.3902         0.024419   
     96. D(C   4,C   3,C   2,C   1)     -0.3647         0.024419   
     97. D(H  22,C   3,C   2,C   1)   -179.8999         0.024419   
     98. D(H  26,C   4,C   3,C   2)   -179.4240         0.023698   
     99. D(C   5,C   4,C   3,C   2)      0.3455         0.023698   
    100. D(C   5,C   4,C   3,H  22)    179.8829         0.023698   
    101. D(H  26,C   4,C   3,H  22)      0.1133         0.023698   
    102. D(Cl  6,C   5,C   4,H  26)      0.7354         0.023888   
    103. D(C   0,C   5,C   4,H  26)    179.9888         0.023888   
    104. D(Cl  6,C   5,C   0,C  10)     -0.8672         0.023929   
    105. D(C   0,C   5,C   4,C   3)      0.2206         0.023888   
    106. D(C   4,C   5,C   0,C  10)    179.9041         0.023929   
    107. D(Cl  6,C   5,C   4,C   3)   -179.0328         0.023888   
    108. D(Cl  6,C   5,C   0,C   1)    178.4623         0.023929   
    109. D(C   4,C   5,C   0,C   1)     -0.7664         0.023929   
    110. D(H  27,N   7,C   1,C   2)     -0.3827         0.023315   
    111. D(H  27,N   7,C   1,C   0)    178.7522         0.023315   
    112. D(C   8,N   7,C   1,C   2)   -178.9963         0.023315   
    113. D(C   8,N   7,C   1,C   0)      0.1386         0.023315   
    114. D(O   9,C   8,N   7,H  27)     -0.5314         0.035388   
    115. D(O   9,C   8,N   7,C   1)    178.0971         0.035388   
    116. D(C  10,C   8,N   7,C   1)     -1.2810         0.035388   
    117. D(C  10,C   8,N   7,H  27)   -179.9095         0.035388   
    118. D(C  12,C  10,C   8,O   9)     64.6743         0.010933   
    119. D(O  11,C  10,C   8,O   9)    -62.6461         0.010933   
    120. D(O  11,C  10,C   8,N   7)    116.7112         0.010933   
    121. D(C   0,C  10,C   8,O   9)   -177.5941         0.010933   
    122. D(C   0,C  10,C   8,N   7)      1.7632         0.010933   
    123. D(C  12,C  10,C   0,C   5)    -62.5526         0.011642   
    124. D(C  12,C  10,C   0,C   1)    118.0612         0.011642   
    125. D(O  11,C  10,C   0,C   5)     60.9660         0.011642   
    126. D(O  11,C  10,C   0,C   1)   -118.4202         0.011642   
    127. D(C  12,C  10,C   8,N   7)   -115.9684         0.010933   
    128. D(C   8,C  10,C   0,C   5)    177.7843         0.011642   
    129. D(C   8,C  10,C   0,C   1)     -1.6019         0.011642   
    130. D(H  28,O  11,C  10,C  12)    -71.7851         0.022108   
    131. D(H  28,O  11,C  10,C   8)     56.6548         0.022108   
    132. D(H  28,O  11,C  10,C   0)    164.9796         0.022108   
    133. D(H  15,C  12,C  10,O  11)   -178.7627         0.009528   
    134. D(H  15,C  12,C  10,C   0)    -56.5485         0.009528   
    135. D(H  14,C  12,C  10,O  11)    -62.6942         0.009528   
    136. D(H  14,C  12,C  10,C   8)    169.9007         0.009528   
    137. D(H  14,C  12,C  10,C   0)     59.5199         0.009528   
    138. D(C  13,C  12,C  10,O  11)     58.9265         0.009528   
    139. D(H  15,C  12,C  10,C   8)     53.8322         0.009528   
    140. D(C  13,C  12,C  10,C   8)    -68.4787         0.009528   
    141. D(C  13,C  12,C  10,C   0)   -178.8594         0.009528   
    142. D(C  17,C  13,C  12,H  15)    120.6256         0.011564   
    143. D(C  17,C  13,C  12,H  14)      4.7386         0.011564   
    144. D(C  17,C  13,C  12,C  10)   -116.3529         0.011564   
    145. D(O  16,C  13,C  12,H  15)    -58.0219         0.011564   
    146. D(O  16,C  13,C  12,H  14)   -173.9090         0.011564   
    147. D(O  16,C  13,C  12,C  10)     64.9996         0.011564   
    148. D(C  18,C  17,C  13,C  12)      1.5881         0.013679   
    149. D(O  21,C  17,C  13,O  16)     -0.0263         0.013679   
    150. D(O  21,C  17,C  13,C  12)   -178.6895         0.013679   
    151. D(C  18,C  17,C  13,O  16)   -179.7487         0.013679   
    152. D(H  23,C  18,C  17,O  21)   -179.8213         0.028046   
    153. D(H  23,C  18,C  17,C  13)     -0.0686         0.028046   
    154. D(C  19,C  18,C  17,O  21)      0.0780         0.028046   
    155. D(C  19,C  18,C  17,C  13)    179.8307         0.028046   
    156. D(H  24,C  19,C  18,H  23)     -0.0760         0.030141   
    157. D(H  24,C  19,C  18,C  17)   -179.9789         0.030141   
    158. D(C  20,C  19,C  18,H  23)    179.8609         0.030141   
    159. D(C  20,C  19,C  18,C  17)     -0.0420         0.030141   
    160. D(H  25,C  20,C  19,H  24)     -0.0214         0.029709   
    161. D(H  25,C  20,C  19,C  18)   -179.9583         0.029709   
    162. D(O  21,C  20,C  19,H  24)    179.9298         0.029709   
    163. D(O  21,C  20,C  19,C  18)     -0.0071         0.029709   
    164. D(C  17,O  21,C  20,H  25)   -179.9912         0.041569   
    165. D(C  17,O  21,C  20,C  19)      0.0568         0.041569   
    166. D(C  20,O  21,C  17,C  18)     -0.0842         0.040930   
    167. D(C  20,O  21,C  17,C  13)   -179.8516         0.040930   
    -----------------------------------------------------------------

Number of atoms                         .... 30
Number of degrees of freedom            .... 167

         *************************************************************
         *                GEOMETRY OPTIMIZATION CYCLE   1            *
         *************************************************************
---------------------------------
CARTESIAN COORDINATES (ANGSTROEM)
---------------------------------
  C      0.146600    1.274200    0.343700
  C     -0.636900    0.184000    0.017500
  C     -2.026600    0.275600   -0.090200
  C     -2.628400    1.520600    0.147600
  C     -1.843200    2.636200    0.491900
  C     -0.445600    2.523900    0.596000
  Cl     0.496000    3.935000    1.053400
  N      0.145000   -0.962900   -0.157400
  C      1.429200   -0.621400    0.056800
  O      2.335900   -1.437300    0.005200
  C      1.602100    0.857900    0.376300
  O      2.112600    1.054300    1.671500
  C      2.428500    1.632300   -0.686300
  C      3.893900    1.250100   -0.734000
  H      2.344100    2.709300   -0.467900
  H      1.988400    1.475900   -1.695500
  O      4.205100    0.119900   -1.073900
  C      4.979500    2.203800   -0.411400
  C      4.857800    3.522100   -0.003500
  C      6.142900    3.981300    0.173800
  C      6.974200    2.925800   -0.132300
  O      6.253600    1.882600   -0.476000
  H     -3.703200    1.625800    0.074100
  H      3.956500    4.097200    0.153500
  H      6.440600    4.971700    0.490900
  H      8.055400    2.938200   -0.098800
  H     -2.325000    3.587000    0.681100
  H     -0.195400   -1.908400   -0.386200
  H      2.969600    0.557800    1.736300
  Cl    -3.008200   -1.119600   -0.504100

----------------------------
CARTESIAN COORDINATES (A.U.)
----------------------------
  NO LB      ZA    FRAG     MASS         X           Y           Z
   0 C     6.0000    0    12.011    0.277034    2.407889    0.649499
   1 C     6.0000    0    12.011   -1.203567    0.347710    0.033070
   2 C     6.0000    0    12.011   -3.829719    0.520809   -0.170453
   3 C     6.0000    0    12.011   -4.966956    2.873518    0.278924
   4 C     6.0000    0    12.011   -3.483143    4.981696    0.929556
   5 C     6.0000    0    12.011   -0.842062    4.769480    1.126277
   6 Cl   17.0000    0    35.453    0.937304    7.436072    1.990638
   7 N     7.0000    0    14.007    0.274010   -1.819617   -0.297443
   8 C     6.0000    0    12.011    2.700797   -1.174276    0.107336
   9 O     8.0000    0    15.999    4.414211   -2.716103    0.009827
  10 C     6.0000    0    12.011    3.027530    1.621196    0.711104
  11 O     8.0000    0    15.999    3.992235    1.992338    3.158677
  12 C     6.0000    0    12.011    4.589200    3.084600   -1.296919
  13 C     6.0000    0    12.011    7.358405    2.362347   -1.387059
  14 H     1.0000    0     1.008    4.429707    5.119835   -0.884203
  15 H     1.0000    0     1.008    3.757531    2.789047   -3.204031
  16 O     8.0000    0    15.999    7.946487    0.226578   -2.029377
  17 C     6.0000    0    12.011    9.409891    4.164578   -0.777433
  18 C     6.0000    0    12.011    9.179912    6.655804   -0.006614
  19 C     6.0000    0    12.011   11.608399    7.523567    0.328434
  20 C     6.0000    0    12.011   13.179328    5.528961   -0.250011
  21 O     8.0000    0    15.999   11.817591    3.557598   -0.899510
  22 H     1.0000    0     1.008   -6.998034    3.072317    0.140029
  23 H     1.0000    0     1.008    7.476701    7.742586    0.290073
  24 H     1.0000    0     1.008   12.170970    9.395151    0.927667
  25 H     1.0000    0     1.008   15.222500    5.552393   -0.186705
  26 H     1.0000    0     1.008   -4.393613    6.778448    1.287092
  27 H     1.0000    0     1.008   -0.369252   -3.606353   -0.729812
  28 H     1.0000    0     1.008    5.611731    1.054089    3.281131
  29 Cl   17.0000    0    35.453   -5.684674   -2.115737   -0.952611

--------------------------------
INTERNAL COORDINATES (ANGSTROEM)
--------------------------------
 C      0   0   0     0.000000000000     0.00000000     0.00000000
 C      1   0   0     1.381598613925     0.00000000     0.00000000
 C      2   1   0     1.396873630648   122.04896385     0.00000000
 C      3   2   1     1.403116916012   118.15237044   359.81141696
 C      4   3   2     1.406998539445   120.37509289   359.63528868
 C      1   2   3     1.405740452573   120.32927169     0.76563498
 Cl     6   1   2     1.756994174720   122.33989042   178.46225248
 N      2   1   3     1.399048687502   111.06625338   180.81642714
 C      8   2   1     1.345984223533   107.77865451     0.13862093
 O      9   8   2     1.220844076858   122.16125993   178.09709093
 C      1   2   3     1.514215539479   109.46605234   180.22248104
 O     11   1   2     1.405960970298   109.29582600   241.57981376
 C     11   1   2     1.552981352110   111.08046035   118.06117694
 C     13  11   1     1.515173023123   114.23079646   181.14058710
 H     13  11   1     1.102157393479   108.11569838    59.51994213
 H     13  11   1     1.112040291536   109.89058590   303.45145828
 O     14  13  11     1.220544751330   119.27070630    64.99955862
 C     14  13  11     1.480588332387   122.66963362   243.64706786
 C     18  14  13     1.385318804463   127.78614740     1.58808894
 C     19  18  14     1.376147499362   105.86908619   179.83066995
 C     20  19  18     1.377983000621   106.20923395   359.95795801
 O     21  20  19     1.313643897714   109.60141171     0.00000000
 H      4   3   2     1.082434446052   120.04005356   180.10005478
 H     19  18  14     1.080615889204   128.49902082   359.93143654
 H     20  19  18     1.081697674954   126.89118816   180.02107539
 H     21  20  19     1.081789928775   125.96459028   180.04174274
 H      5   4   3     1.082565711631   119.39203883   180.57597189
 H      8   2   1     1.030626920859   126.52862527   178.75216130
 H     12  11   1     0.992552411714   107.68447584   164.97960958
 Cl     3   2   1     1.755401609319   121.49180556   180.05945465

---------------------------
INTERNAL COORDINATES (A.U.)
---------------------------
 C      0   0   0     0.000000000000     0.00000000     0.00000000
 C      1   0   0     2.610843007324     0.00000000     0.00000000
 C      2   1   0     2.639708605621   122.04896385     0.00000000
 C      3   2   1     2.651506705136   118.15237044   359.81141696
 C      4   3   2     2.658841910378   120.37509289   359.63528868
 C      1   2   3     2.656464470737   120.32927169     0.76563498
 Cl     6   1   2     3.320237809116   122.33989042   178.46225248
 N      2   1   3     2.643818867400   111.06625338   180.81642714
 C      8   2   1     2.543541563056   107.77865451     0.13862093
 O      9   8   2     2.307060957482   122.16125993   178.09709093
 C      1   2   3     2.861452677343   109.46605234   180.22248104
 O     11   1   2     2.656881188845   109.29582600   241.57981376
 C     11   1   2     2.934709446574   111.08046035   118.06117694
 C     13  11   1     2.863262059208   114.23079646   181.14058710
 H     13  11   1     2.082775630151   108.11569838    59.51994213
 H     13  11   1     2.101451600889   109.89058590   303.45145828
 O     14  13  11     2.306495314209   119.27070630    64.99955862
 C     14  13  11     2.797906465290   122.66963362   243.64706786
 C     18  14  13     2.617873148607   127.78614740     1.58808894
 C     19  18  14     2.600541893675   105.86908619   179.83066995
 C     20  19  18     2.604010488372   106.20923395   359.95795801
 O     21  20  19     2.482427204175   109.60141171     0.00000000
 H      4   3   2     2.045504660961   120.04005356   180.10005478
 H     19  18  14     2.042068086559   128.49902082   359.93143654
 H     20  19  18     2.044112365362   126.89118816   180.02107539
 H     21  20  19     2.044286699820   125.96459028   180.04174274
 H      5   4   3     2.045752716957   119.39203883   180.57597189
 H      8   2   1     1.947602626671   126.52862527   178.75216130
 H     12  11   1     1.875652231703   107.68447584   164.97960958
 Cl     3   2   1     3.317228296658   121.49180556   180.05945465

---------------------
BASIS SET INFORMATION
---------------------
There are 5 groups of distinct atoms

 Group   1 Type C   : 7s4p1d contracted to 3s2p1d pattern {511/31/1}
 Group   2 Type Cl  : 10s7p1d contracted to 4s3p1d pattern {5311/511/1}
 Group   3 Type N   : 7s4p1d contracted to 3s2p1d pattern {511/31/1}
 Group   4 Type O   : 7s4p1d contracted to 3s2p1d pattern {511/31/1}
 Group   5 Type H   : 4s1p contracted to 2s1p pattern {31/1}

Atom   0C    basis set group =>   1
Atom   1C    basis set group =>   1
Atom   2C    basis set group =>   1
Atom   3C    basis set group =>   1
Atom   4C    basis set group =>   1
Atom   5C    basis set group =>   1
Atom   6Cl   basis set group =>   2
Atom   7N    basis set group =>   3
Atom   8C    basis set group =>   1
Atom   9O    basis set group =>   4
Atom  10C    basis set group =>   1
Atom  11O    basis set group =>   4
Atom  12C    basis set group =>   1
Atom  13C    basis set group =>   1
Atom  14H    basis set group =>   5
Atom  15H    basis set group =>   5
Atom  16O    basis set group =>   4
Atom  17C    basis set group =>   1
Atom  18C    basis set group =>   1
Atom  19C    basis set group =>   1
Atom  20C    basis set group =>   1
Atom  21O    basis set group =>   4
Atom  22H    basis set group =>   5
Atom  23H    basis set group =>   5
Atom  24H    basis set group =>   5
Atom  25H    basis set group =>   5
Atom  26H    basis set group =>   5
Atom  27H    basis set group =>   5
Atom  28H    basis set group =>   5
Atom  29Cl   basis set group =>   2
---------------------------------
AUXILIARY/J BASIS SET INFORMATION
---------------------------------
There are 5 groups of distinct atoms

 Group   1 Type C   : 12s5p4d2f1g contracted to 6s4p3d1f1g pattern {711111/2111/211/2/1}
 Group   2 Type Cl  : 14s5p5d2f1g contracted to 8s4p3d1f1g pattern {71111111/2111/311/2/1}
 Group   3 Type N   : 12s5p4d2f1g contracted to 6s4p3d1f1g pattern {711111/2111/211/2/1}
 Group   4 Type O   : 12s5p4d2f1g contracted to 6s4p3d1f1g pattern {711111/2111/211/2/1}
 Group   5 Type H   : 5s2p1d contracted to 3s1p1d pattern {311/2/1}

Atom   0C    basis set group =>   1
Atom   1C    basis set group =>   1
Atom   2C    basis set group =>   1
Atom   3C    basis set group =>   1
Atom   4C    basis set group =>   1
Atom   5C    basis set group =>   1
Atom   6Cl   basis set group =>   2
Atom   7N    basis set group =>   3
Atom   8C    basis set group =>   1
Atom   9O    basis set group =>   4
Atom  10C    basis set group =>   1
Atom  11O    basis set group =>   4
Atom  12C    basis set group =>   1
Atom  13C    basis set group =>   1
Atom  14H    basis set group =>   5
Atom  15H    basis set group =>   5
Atom  16O    basis set group =>   4
Atom  17C    basis set group =>   1
Atom  18C    basis set group =>   1
Atom  19C    basis set group =>   1
Atom  20C    basis set group =>   1
Atom  21O    basis set group =>   4
Atom  22H    basis set group =>   5
Atom  23H    basis set group =>   5
Atom  24H    basis set group =>   5
Atom  25H    basis set group =>   5
Atom  26H    basis set group =>   5
Atom  27H    basis set group =>   5
Atom  28H    basis set group =>   5
Atom  29Cl   basis set group =>   2
------------------------------------------------------------------------------
                           ORCA GTO INTEGRAL CALCULATION
                           -- RI-GTO INTEGRALS CHOSEN --
------------------------------------------------------------------------------
------------------------------------------------------------------------------
                   ___                                                        
                  /   \      - P O W E R E D   B Y -                         
                 /     \                                                     
                 |  |  |   _    _      __       _____    __    __             
                 |  |  |  | |  | |    /  \     |  _  \  |  |  /  |          
                  \  \/   | |  | |   /    \    | | | |  |  | /  /          
                 / \  \   | |__| |  /  /\  \   | |_| |  |  |/  /          
                |  |  |   |  __  | /  /__\  \  |    /   |      \           
                |  |  |   | |  | | |   __   |  |    \   |  |\   \          
                \     /   | |  | | |  |  |  |  | |\  \  |  | \   \       
                 \___/    |_|  |_| |__|  |__|  |_| \__\ |__|  \__/        
                                                                              
                      - O R C A' S   B I G   F R I E N D -                    
                                      &                                       
                       - I N T E G R A L  F E E D E R -                       
                                                                              
 v1 FN, 2020, v2 2021                                                         
------------------------------------------------------------------------------


Reading SHARK input file input.SHARKINP.tmp ... ok
----------------------
SHARK INTEGRAL PACKAGE
----------------------

Number of atoms                             ...     30
Number of basis functions                   ...    347
Number of shells                            ...    157
Maximum angular momentum                    ...      2
Integral batch strategy                     ... SHARK/LIBINT Hybrid
RI-J (if used) integral strategy            ... SPLIT-RIJ (Revised 2003 algorithm where possible)
Printlevel                                  ...      1
Contraction scheme used                     ... SEGMENTED contraction
Coulomb Range Separation                    ... NOT USED
Exchange Range Separation                   ... NOT USED
Finite Nucleus Model                        ... NOT USED
Auxiliary Coulomb fitting basis             ... AVAILABLE
   # of basis functions in Aux-J            ...   1132
   # of shells in Aux-J                     ...    364
   Maximum angular momentum in Aux-J        ...      4
Auxiliary J/K fitting basis                 ... NOT available
Auxiliary Correlation fitting basis         ... NOT available
Auxiliary 'external' fitting basis          ... NOT available
Integral threshold                          ...     2.500000e-11
Primitive cut-off                           ...     2.500000e-12
Primitive pair pre-selection threshold      ...     2.500000e-12

Calculating pre-screening integrals         ... done (  0.0 sec) Dimension = 157
Organizing shell pair data                  ... done (  0.0 sec)
Shell pair information
Total number of shell pairs                 ...     12403
Shell pairs after pre-screening             ...      9113
Total number of primitive shell pairs       ...     48215
Primitive shell pairs kept                  ...     22347
          la=0 lb=0:   2544 shell pairs
          la=1 lb=0:   3330 shell pairs
          la=1 lb=1:   1128 shell pairs
          la=2 lb=0:   1174 shell pairs
          la=2 lb=1:    793 shell pairs
          la=2 lb=2:    144 shell pairs

Calculating one electron integrals          ... done (  0.0 sec)
Calculating RI/J V-Matrix + Cholesky decomp.... done (  0.0 sec)
Calculating Nuclear repulsion               ... done (  0.0 sec) ENN=   1902.985089685573 Eh

SHARK setup successfully completed in   0.2 seconds

Maximum memory used throughout the entire GTOINT-calculation: 67.6 MB
-------------------------------------------------------------------------------
                                 ORCA SCF
-------------------------------------------------------------------------------

------------
SCF SETTINGS
------------
Hamiltonian:
 Density Functional     Method          .... DFT(GTOs)
 Exchange Functional    Exchange        .... B88
   X-Alpha parameter    XAlpha          ....  0.666667
   Becke's b parameter  XBeta           ....  0.004200
 Correlation Functional Correlation     .... P86
 LDA part of GGA corr.  LDAOpt          .... PW91-LDA
 Gradients option       PostSCFGGA      .... off
   Density functional embedding theory  .... OFF
   NL short-range parameter             ....  4.400000
 RI-approximation to the Coulomb term is turned on
   Number of AuxJ basis functions       .... 1132


General Settings:
 Integral files         IntName         .... input
 Hartree-Fock type      HFTyp           .... RHF
 Total Charge           Charge          ....    0
 Multiplicity           Mult            ....    1
 Number of Electrons    NEL             ....  166
 Basis Dimension        Dim             ....  347
 Nuclear Repulsion      ENuc            ....   1902.9850896856 Eh

Convergence Acceleration:
 DIIS                   CNVDIIS         .... on
   Start iteration      DIISMaxIt       ....    12
   Startup error        DIISStart       ....  0.200000
   # of expansion vecs  DIISMaxEq       ....     5
   Bias factor          DIISBfac        ....   1.050
   Max. coefficient     DIISMaxC        ....  10.000
 Trust-Rad. Augm. Hess. CNVTRAH         .... auto
   Auto Start mean grad. ratio tolernc. ....  1.125000
   Auto Start start iteration           ....    20
   Auto Start num. interpolation iter.  ....    10
   Max. Number of Micro iterations      ....    16
   Max. Number of Macro iterations      .... Maxiter - #DIIS iter
   Number of Davidson start vectors     ....     2
   Converg. threshold I  (grad. norm)   ....   1.000e-05
   Converg. threshold II (energy diff.) ....   1.000e-08
   Grad. Scal. Fac. for Micro threshold ....   0.100
   Minimum threshold for Micro iter.    ....   0.010
   NR start threshold (gradient norm)   ....   0.001
   Initial trust radius                 ....   0.400
   Minimum AH scaling param. (alpha)    ....   1.000
   Maximum AH scaling param. (alpha)    .... 1000.000
   Orbital update algorithm             .... Taylor
   White noise on init. David. guess    .... on
   Maximum white noise                  ....   0.010
   Quad. conv. algorithm                .... NR
 SOSCF                  CNVSOSCF        .... on
   Start iteration      SOSCFMaxIt      ....   150
   Startup grad/error   SOSCFStart      ....  0.003300
 Level Shifting         CNVShift        .... on
   Level shift para.    LevelShift      ....    0.2500
   Turn off err/grad.   ShiftErr        ....    0.0010
 Zerner damping         CNVZerner       .... off
 Static damping         CNVDamp         .... on
   Fraction old density DampFac         ....    0.7000
   Max. Damping (<1)    DampMax         ....    0.9800
   Min. Damping (>=0)   DampMin         ....    0.0000
   Turn off err/grad.   DampErr         ....    0.1000
 Fernandez-Rico         CNVRico         .... off

SCF Procedure:
 Maximum # iterations   MaxIter         ....   125
 SCF integral mode      SCFMode         .... Direct
   Integral package                     .... SHARK and LIBINT hybrid scheme
 Reset frequency        DirectResetFreq ....    20
 Integral Threshold     Thresh          ....  2.500e-11 Eh
 Primitive CutOff       TCut            ....  2.500e-12 Eh

Convergence Tolerance:
 Convergence Check Mode ConvCheckMode   .... Total+1el-Energy
 Convergence forced     ConvForced      .... 0
 Energy Change          TolE            ....  1.000e-08 Eh
 1-El. energy change                    ....  1.000e-05 Eh
 Orbital Gradient       TolG            ....  1.000e-05
 Orbital Rotation angle TolX            ....  1.000e-05
 DIIS Error             TolErr          ....  5.000e-07


Diagonalization of the overlap matrix:
Smallest eigenvalue                        ... 1.645e-04
Time for diagonalization                   ...    0.008 sec
Threshold for overlap eigenvalues          ... 1.000e-08
Number of eigenvalues below threshold      ... 0
Time for construction of square roots      ...    0.002 sec
Total time needed                          ...    0.011 sec

Time for model grid setup =    0.344 sec

------------------------------
INITIAL GUESS: MODEL POTENTIAL
------------------------------
Loading Hartree-Fock densities                     ... done
Calculating cut-offs                               ... done
Initializing the effective Hamiltonian             ... done
Setting up the integral package (SHARK)            ... done
Starting the Coulomb interaction                   ... done (   0.3 sec)
Reading the grid                                   ... done
Mapping shells                                     ... done
Starting the XC term evaluation                    ... done (   0.3 sec)
  promolecular density results
     # of electrons  =    165.991930691
     EX              =   -169.182335495
     EC              =     -6.450366514
     EX+EC           =   -175.632702009
Transforming the Hamiltonian                       ... done (   0.0 sec)
Diagonalizing the Hamiltonian                      ... done (   0.0 sec)
Back transforming the eigenvectors                 ... done (   0.0 sec)
Now organizing SCF variables                       ... done
                      ------------------
                      INITIAL GUESS DONE (   1.0 sec)
                      ------------------
-------------------
DFT GRID GENERATION
-------------------

General Integration Accuracy     IntAcc      ... 4.388
Radial Grid Type                 RadialGrid  ... OptM3 with GC (2021)
Angular Grid (max. ang.)         AngularGrid ... 4 (Lebedev-302)
Angular grid pruning method      GridPruning ... 4 (adaptive)
Weight generation scheme         WeightScheme... Becke
Basis function cutoff            BFCut       ... 1.0000e-11
Integration weight cutoff        WCut        ... 1.0000e-14
Angular grids for H and He will be reduced by one unit
Partially contracted basis set               ... off
Rotationally invariant grid construction     ... off

Total number of grid points                  ...   157004
Total number of batches                      ...     2467
Average number of points per batch           ...       63
Average number of grid points per atom       ...     5233
Time for grid setup =    1.349 sec

--------------
SCF ITERATIONS
--------------
ITER       Energy         Delta-E        Max-DP      RMS-DP      [F,P]     Damp
               ***  Starting incremental Fock matrix formation  ***
  0  -1813.6848993687   0.000000000000 0.25080321  0.00277998  0.2594981 0.7000
  1  -1813.8968847276  -0.211985358841 0.11953112  0.00152322  0.0752260 0.7000
                               ***Turning on DIIS***
  2  -1813.9545653404  -0.057680612847 0.06401452  0.00171722  0.0308509 0.0000
  3  -1814.0746730112  -0.120107670806 0.07762964  0.00108509  0.0495061 0.0000
  4  -1814.0935534807  -0.018880469510 0.02383967  0.00037646  0.0337452 0.0000
  5  -1814.0982273497  -0.004673868967 0.00652823  0.00011749  0.0044150 0.0000
                      *** Initiating the SOSCF procedure ***
                           *** Shutting down DIIS ***
                      *** Re-Reading the Fockian *** 
                      *** Removing any level shift *** 
ITER      Energy       Delta-E        Grad      Rot      Max-DP    RMS-DP
  6  -1814.09838428  -0.0001569273  0.000367  0.000367  0.004801  0.000045
               *** Restarting incremental Fock matrix formation ***
  7  -1814.09841360  -0.0000293262  0.000278  0.001114  0.002967  0.000035
  8  -1814.09840094   0.0000126588  0.000747  0.000771  0.001232  0.000021
  9  -1814.09841694  -0.0000159989  0.000061  0.000396  0.000607  0.000011
 10  -1814.09841538   0.0000015669  0.000198  0.000294  0.000536  0.000008
 11  -1814.09841719  -0.0000018127  0.000024  0.000094  0.000130  0.000004
 12  -1814.09841710   0.0000000875  0.000024  0.000044  0.000080  0.000002
 13  -1814.09841722  -0.0000001192  0.000008  0.000041  0.000050  0.000001
 14  -1814.09841720   0.0000000205  0.000020  0.000029  0.000041  0.000001
                  ***Gradient check signals convergence***
              ***Rediagonalizing the Fockian in SOSCF/NRSCF***

               *****************************************************
               *                     SUCCESS                       *
               *           SCF CONVERGED AFTER  15 CYCLES          *
               *****************************************************


----------------
TOTAL SCF ENERGY
----------------

Total Energy       :        -1814.09841722 Eh          -49364.12756 eV

Components:
Nuclear Repulsion  :         1902.98508969 Eh           51782.85688 eV
Electronic Energy  :        -3717.08350691 Eh         -101146.98444 eV
One Electron Energy:        -6272.55462918 Eh         -170684.88891 eV
Two Electron Energy:         2555.47112227 Eh           69537.90448 eV

Virial components:
Potential Energy   :        -3617.60954461 Eh          -98440.16031 eV
Kinetic Energy     :         1803.51112739 Eh           49076.03275 eV
Virial Ratio       :            2.00587038


DFT components:
N(Alpha)           :       83.000100851916 electrons
N(Beta)            :       83.000100851916 electrons
N(Total)           :      166.000201703832 electrons
E(X)               :     -170.724218501653 Eh       
E(C)               :       -6.454972608973 Eh       
E(XC)              :     -177.179191110626 Eh       
DFET-embed. en.    :        0.000000000000 Eh       

---------------
SCF CONVERGENCE
---------------

  Last Energy change         ...   -2.1074e-08  Tolerance :   1.0000e-08
  Last MAX-Density change    ...    3.0742e-05  Tolerance :   1.0000e-07
  Last RMS-Density change    ...    4.4271e-07  Tolerance :   5.0000e-09
  Last Orbital Gradient      ...    2.3949e-06  Tolerance :   1.0000e-05
  Last Orbital Rotation      ...    1.0864e-05  Tolerance :   1.0000e-05

             **** THE GBW FILE WAS UPDATED (input.gbw) ****
             **** DENSITY input.scfp WAS UPDATED ****
             **** ENERGY FILE WAS UPDATED (input.en.tmp) ****
             **** THE GBW FILE WAS UPDATED (input.gbw) ****
             **** DENSITY input.scfp WAS UPDATED ****
----------------
ORBITAL ENERGIES
----------------

  NO   OCC          E(Eh)            E(eV) 
   0   2.0000    -100.723167     -2740.8167 
   1   2.0000    -100.719534     -2740.7178 
   2   2.0000     -18.872280      -513.5409 
   3   2.0000     -18.797337      -511.5015 
   4   2.0000     -18.755239      -510.3560 
   5   2.0000     -18.754260      -510.3294 
   6   2.0000     -14.073480      -382.9589 
   7   2.0000     -10.011305      -272.4214 
   8   2.0000     -10.000056      -272.1154 
   9   2.0000      -9.994944      -271.9763 
  10   2.0000      -9.993419      -271.9348 
  11   2.0000      -9.989645      -271.8321 
  12   2.0000      -9.986567      -271.7483 
  13   2.0000      -9.980702      -271.5887 
  14   2.0000      -9.973403      -271.3901 
  15   2.0000      -9.949304      -270.7343 
  16   2.0000      -9.946587      -270.6604 
  17   2.0000      -9.942375      -270.5458 
  18   2.0000      -9.933626      -270.3077 
  19   2.0000      -9.927353      -270.1370 
  20   2.0000      -9.923240      -270.0251 
  21   2.0000      -9.207754      -250.5557 
  22   2.0000      -9.203864      -250.4499 
  23   2.0000      -7.038834      -191.5364 
  24   2.0000      -7.034949      -191.4307 
  25   2.0000      -7.027266      -191.2216 
  26   2.0000      -7.027052      -191.2158 
  27   2.0000      -7.023624      -191.1225 
  28   2.0000      -7.022911      -191.1031 
  29   2.0000      -1.067984       -29.0613 
  30   2.0000      -0.971142       -26.4261 
  31   2.0000      -0.939021       -25.5521 
  32   2.0000      -0.934914       -25.4403 
  33   2.0000      -0.893213       -24.3056 
  34   2.0000      -0.827189       -22.5090 
  35   2.0000      -0.813018       -22.1233 
  36   2.0000      -0.762718       -20.7546 
  37   2.0000      -0.748848       -20.3772 
  38   2.0000      -0.732036       -19.9197 
  39   2.0000      -0.712452       -19.3868 
  40   2.0000      -0.685636       -18.6571 
  41   2.0000      -0.669194       -18.2097 
  42   2.0000      -0.642498       -17.4832 
  43   2.0000      -0.585247       -15.9254 
  44   2.0000      -0.577108       -15.7039 
  45   2.0000      -0.564195       -15.3525 
  46   2.0000      -0.550724       -14.9860 
  47   2.0000      -0.542747       -14.7689 
  48   2.0000      -0.515540       -14.0286 
  49   2.0000      -0.498861       -13.5747 
  50   2.0000      -0.488607       -13.2957 
  51   2.0000      -0.476246       -12.9593 
  52   2.0000      -0.456820       -12.4307 
  53   2.0000      -0.450705       -12.2643 
  54   2.0000      -0.447991       -12.1905 
  55   2.0000      -0.438081       -11.9208 
  56   2.0000      -0.425404       -11.5758 
  57   2.0000      -0.422595       -11.4994 
  58   2.0000      -0.411797       -11.2056 
  59   2.0000      -0.400302       -10.8928 
  60   2.0000      -0.390613       -10.6291 
  61   2.0000      -0.383430       -10.4337 
  62   2.0000      -0.375417       -10.2156 
  63   2.0000      -0.369583       -10.0569 
  64   2.0000      -0.367782       -10.0079 
  65   2.0000      -0.362933        -9.8759 
  66   2.0000      -0.354602        -9.6492 
  67   2.0000      -0.344363        -9.3706 
  68   2.0000      -0.340134        -9.2555 
  69   2.0000      -0.334466        -9.1013 
  70   2.0000      -0.330643        -8.9973 
  71   2.0000      -0.312932        -8.5153 
  72   2.0000      -0.301684        -8.2092 
  73   2.0000      -0.294079        -8.0023 
  74   2.0000      -0.284247        -7.7348 
  75   2.0000      -0.281256        -7.6534 
  76   2.0000      -0.275486        -7.4964 
  77   2.0000      -0.254762        -6.9324 
  78   2.0000      -0.236798        -6.4436 
  79   2.0000      -0.224739        -6.1155 
  80   2.0000      -0.217723        -5.9245 
  81   2.0000      -0.214757        -5.8438 
  82   2.0000      -0.191233        -5.2037 
  83   0.0000      -0.091891        -2.5005 
  84   0.0000      -0.077644        -2.1128 
  85   0.0000      -0.062070        -1.6890 
  86   0.0000      -0.023332        -0.6349 
  87   0.0000      -0.020409        -0.5554 
  88   0.0000      -0.006583        -0.1791 
  89   0.0000      -0.005584        -0.1520 
  90   0.0000       0.029761         0.8098 
  91   0.0000       0.039437         1.0731 
  92   0.0000       0.045232         1.2308 
  93   0.0000       0.054543         1.4842 
  94   0.0000       0.066680         1.8145 
  95   0.0000       0.075723         2.0605 
  96   0.0000       0.079162         2.1541 
  97   0.0000       0.082014         2.2317 
  98   0.0000       0.094888         2.5820 
  99   0.0000       0.110410         3.0044 
 100   0.0000       0.118158         3.2153 
 101   0.0000       0.126992         3.4556 
 102   0.0000       0.145309         3.9541 
 103   0.0000       0.153413         4.1746 
 104   0.0000       0.165473         4.5027 
 105   0.0000       0.171349         4.6626 
 106   0.0000       0.181488         4.9385 
 107   0.0000       0.203100         5.5266 
 108   0.0000       0.206668         5.6237 
 109   0.0000       0.210972         5.7408 
 110   0.0000       0.219672         5.9776 
 111   0.0000       0.229779         6.2526 
 112   0.0000       0.247577         6.7369 
 113   0.0000       0.256660         6.9841 
 114   0.0000       0.268164         7.2971 
 115   0.0000       0.271392         7.3850 
 116   0.0000       0.298155         8.1132 
 117   0.0000       0.303089         8.2475 
 118   0.0000       0.319980         8.7071 
 119   0.0000       0.322633         8.7793 
 120   0.0000       0.332675         9.0526 
 121   0.0000       0.342755         9.3268 
 122   0.0000       0.352567         9.5938 
 123   0.0000       0.363475         9.8907 
 124   0.0000       0.377458        10.2712 
 125   0.0000       0.382657        10.4126 
 126   0.0000       0.386571        10.5191 
 127   0.0000       0.393672        10.7124 
 128   0.0000       0.401750        10.9322 
 129   0.0000       0.406239        11.0543 
 130   0.0000       0.407583        11.0909 
 131   0.0000       0.423115        11.5136 
 132   0.0000       0.432200        11.7607 
 133   0.0000       0.440429        11.9847 
 134   0.0000       0.458047        12.4641 
 135   0.0000       0.466465        12.6931 
 136   0.0000       0.468165        12.7394 
 137   0.0000       0.472706        12.8630 
 138   0.0000       0.480104        13.0643 
 139   0.0000       0.485004        13.1976 
 140   0.0000       0.487740        13.2721 
 141   0.0000       0.490017        13.3340 
 142   0.0000       0.500732        13.6256 
 143   0.0000       0.507014        13.7965 
 144   0.0000       0.521206        14.1827 
 145   0.0000       0.527120        14.3437 
 146   0.0000       0.537477        14.6255 
 147   0.0000       0.546787        14.8788 
 148   0.0000       0.551275        15.0010 
 149   0.0000       0.557892        15.1810 
 150   0.0000       0.565978        15.4010 
 151   0.0000       0.577402        15.7119 
 152   0.0000       0.589667        16.0457 
 153   0.0000       0.592121        16.1124 
 154   0.0000       0.600965        16.3531 
 155   0.0000       0.604144        16.4396 
 156   0.0000       0.609041        16.5729 
 157   0.0000       0.613343        16.6899 
 158   0.0000       0.616076        16.7643 
 159   0.0000       0.621025        16.8989 
 160   0.0000       0.622407        16.9365 
 161   0.0000       0.632822        17.2200 
 162   0.0000       0.636487        17.3197 
 163   0.0000       0.638371        17.3709 
 164   0.0000       0.646946        17.6043 
 165   0.0000       0.663408        18.0523 
 166   0.0000       0.670192        18.2369 
 167   0.0000       0.672028        18.2868 
 168   0.0000       0.682908        18.5829 
 169   0.0000       0.690073        18.7778 
 170   0.0000       0.702170        19.1070 
 171   0.0000       0.703721        19.1492 
 172   0.0000       0.712972        19.4010 
 173   0.0000       0.721265        19.6266 
 174   0.0000       0.725849        19.7513 
 175   0.0000       0.733002        19.9460 
 176   0.0000       0.736697        20.0465 
 177   0.0000       0.750663        20.4266 
 178   0.0000       0.755762        20.5653 
 179   0.0000       0.758291        20.6341 
 180   0.0000       0.766529        20.8583 
 181   0.0000       0.779130        21.2012 
 182   0.0000       0.784146        21.3377 
 183   0.0000       0.805227        21.9113 
 184   0.0000       0.820717        22.3328 
 185   0.0000       0.835006        22.7217 
 186   0.0000       0.856383        23.3034 
 187   0.0000       0.866379        23.5754 
 188   0.0000       0.885516        24.0961 
 189   0.0000       0.892732        24.2925 
 190   0.0000       0.900214        24.4961 
 191   0.0000       0.916316        24.9342 
 192   0.0000       0.928196        25.2575 
 193   0.0000       0.937160        25.5014 
 194   0.0000       0.950609        25.8674 
 195   0.0000       0.960845        26.1459 
 196   0.0000       0.970428        26.4067 
 197   0.0000       0.978923        26.6379 
 198   0.0000       0.999899        27.2086 
 199   0.0000       1.019517        27.7425 
 200   0.0000       1.028170        27.9779 
 201   0.0000       1.035704        28.1829 
 202   0.0000       1.045884        28.4599 
 203   0.0000       1.059455        28.8292 
 204   0.0000       1.066612        29.0240 
 205   0.0000       1.084172        29.5018 
 206   0.0000       1.108945        30.1759 
 207   0.0000       1.115749        30.3611 
 208   0.0000       1.127105        30.6701 
 209   0.0000       1.147311        31.2199 
 210   0.0000       1.150179        31.2980 
 211   0.0000       1.157334        31.4927 
 212   0.0000       1.165570        31.7168 
 213   0.0000       1.184110        32.2213 
 214   0.0000       1.194812        32.5125 
 215   0.0000       1.203731        32.7552 
 216   0.0000       1.218415        33.1548 
 217   0.0000       1.221489        33.2384 
 218   0.0000       1.240605        33.7586 
 219   0.0000       1.270904        34.5831 
 220   0.0000       1.277347        34.7584 
 221   0.0000       1.287337        35.0302 
 222   0.0000       1.298325        35.3292 
 223   0.0000       1.319206        35.8974 
 224   0.0000       1.331864        36.2419 
 225   0.0000       1.353924        36.8421 
 226   0.0000       1.362334        37.0710 
 227   0.0000       1.372111        37.3371 
 228   0.0000       1.393168        37.9100 
 229   0.0000       1.394447        37.9448 
 230   0.0000       1.418019        38.5863 
 231   0.0000       1.430675        38.9306 
 232   0.0000       1.436598        39.0918 
 233   0.0000       1.444696        39.3122 
 234   0.0000       1.460569        39.7441 
 235   0.0000       1.478434        40.2302 
 236   0.0000       1.516765        41.2733 
 237   0.0000       1.522582        41.4316 
 238   0.0000       1.556405        42.3519 
 239   0.0000       1.574123        42.8341 
 240   0.0000       1.587075        43.1865 
 241   0.0000       1.602779        43.6138 
 242   0.0000       1.607382        43.7391 
 243   0.0000       1.617084        44.0031 
 244   0.0000       1.629399        44.3382 
 245   0.0000       1.637995        44.5721 
 246   0.0000       1.650739        44.9189 
 247   0.0000       1.663307        45.2609 
 248   0.0000       1.669186        45.4209 
 249   0.0000       1.678654        45.6785 
 250   0.0000       1.693063        46.0706 
 251   0.0000       1.698716        46.2244 
 252   0.0000       1.719546        46.7912 
 253   0.0000       1.733918        47.1823 
 254   0.0000       1.744278        47.4642 
 255   0.0000       1.756305        47.7915 
 256   0.0000       1.761481        47.9323 
 257   0.0000       1.777774        48.3757 
 258   0.0000       1.785264        48.5795 
 259   0.0000       1.793957        48.8161 
 260   0.0000       1.808020        49.1987 
 261   0.0000       1.823529        49.6208 
 262   0.0000       1.824455        49.6460 
 263   0.0000       1.834380        49.9160 
 264   0.0000       1.854864        50.4734 
 265   0.0000       1.859076        50.5880 
 266   0.0000       1.862655        50.6854 
 267   0.0000       1.867722        50.8233 
 268   0.0000       1.880984        51.1842 
 269   0.0000       1.896482        51.6059 
 270   0.0000       1.928252        52.4704 
 271   0.0000       1.936050        52.6826 
 272   0.0000       1.945086        52.9285 
 273   0.0000       1.959379        53.3174 
 274   0.0000       1.971597        53.6499 
 275   0.0000       1.988162        54.1006 
 276   0.0000       1.999017        54.3960 
 277   0.0000       2.031199        55.2717 
 278   0.0000       2.036183        55.4073 
 279   0.0000       2.047034        55.7026 
 280   0.0000       2.069593        56.3165 
 281   0.0000       2.081530        56.6413 
 282   0.0000       2.093775        56.9745 
 283   0.0000       2.101207        57.1767 
 284   0.0000       2.112633        57.4877 
 285   0.0000       2.144073        58.3432 
 286   0.0000       2.169539        59.0362 
 287   0.0000       2.174334        59.1666 
 288   0.0000       2.177976        59.2657 
 289   0.0000       2.195794        59.7506 
 290   0.0000       2.209921        60.1350 
 291   0.0000       2.235834        60.8401 
 292   0.0000       2.254979        61.3611 
 293   0.0000       2.259116        61.4737 
 294   0.0000       2.274129        61.8822 
 295   0.0000       2.302223        62.6467 
 296   0.0000       2.309708        62.8503 
 297   0.0000       2.322750        63.2052 
 298   0.0000       2.364928        64.3530 
 299   0.0000       2.394069        65.1459 
 300   0.0000       2.434003        66.2326 
 301   0.0000       2.452519        66.7364 
 302   0.0000       2.462436        67.0063 
 303   0.0000       2.479500        67.4706 
 304   0.0000       2.486294        67.6555 
 305   0.0000       2.504635        68.1546 
 306   0.0000       2.527367        68.7732 
 307   0.0000       2.560737        69.6812 
 308   0.0000       2.568846        69.9019 
 309   0.0000       2.593341        70.5684 
 310   0.0000       2.596857        70.6641 
 311   0.0000       2.619374        71.2768 
 312   0.0000       2.622849        71.3713 
 313   0.0000       2.626250        71.4639 
 314   0.0000       2.635765        71.7228 
 315   0.0000       2.650469        72.1229 
 316   0.0000       2.680417        72.9379 
 317   0.0000       2.690311        73.2071 
 318   0.0000       2.707674        73.6796 
 319   0.0000       2.719940        74.0133 
 320   0.0000       2.791792        75.9685 
 321   0.0000       2.795733        76.0758 
 322   0.0000       2.818599        76.6980 
 323   0.0000       2.840608        77.2969 
 324   0.0000       2.854370        77.6714 
 325   0.0000       2.866491        78.0012 
 326   0.0000       2.883114        78.4535 
 327   0.0000       2.909127        79.1614 
 328   0.0000       2.932849        79.8069 
 329   0.0000       2.960536        80.5603 
 330   0.0000       2.967883        80.7602 
 331   0.0000       3.007096        81.8272 
 332   0.0000       3.047171        82.9177 
 333   0.0000       3.070358        83.5487 
 334   0.0000       3.077950        83.7553 
 335   0.0000       3.096052        84.2479 
 336   0.0000       3.248809        88.4046 
 337   0.0000       3.272775        89.0567 
 338   0.0000       3.283575        89.3506 
 339   0.0000       3.343064        90.9694 
 340   0.0000       3.388826        92.2146 
 341   0.0000       3.446390        93.7811 
 342   0.0000       3.470826        94.4460 
 343   0.0000       3.482496        94.7635 
 344   0.0000       3.584371        97.5357 
 345   0.0000       3.603715        98.0621 
 346   0.0000       3.638439        99.0069 

                    ********************************
                    * MULLIKEN POPULATION ANALYSIS *
                    ********************************

-----------------------
MULLIKEN ATOMIC CHARGES
-----------------------
   0 C :    0.035663
   1 C :    0.082230
   2 C :    0.013037
   3 C :   -0.022059
   4 C :   -0.002123
   5 C :    0.015808
   6 Cl:   -0.055366
   7 N :   -0.029895
   8 C :    0.081291
   9 O :   -0.144243
  10 C :   -0.094254
  11 O :   -0.247929
  12 C :    0.167491
  13 C :   -0.040652
  14 H :    0.007156
  15 H :    0.039703
  16 O :   -0.140807
  17 C :    0.076461
  18 C :   -0.056742
  19 C :   -0.024661
  20 C :    0.113429
  21 O :   -0.078723
  22 H :    0.001511
  23 H :    0.009906
  24 H :    0.006382
  25 H :    0.031681
  26 H :   -0.004002
  27 H :    0.139843
  28 H :    0.191478
  29 Cl:   -0.071614
Sum of atomic charges:   -0.0000000

--------------------------------
MULLIKEN REDUCED ORBITAL CHARGES
--------------------------------
  0 C s       :     3.100023  s :     3.100023
      pz      :     1.026044  p :     2.826669
      px      :     0.949284
      py      :     0.851340
      dz2     :     0.003883  d :     0.037645
      dxz     :     0.004526
      dyz     :     0.006559
      dx2y2   :     0.009334
      dxy     :     0.013344
  1 C s       :     3.049887  s :     3.049887
      pz      :     1.012324  p :     2.809047
      px      :     0.865580
      py      :     0.931144
      dz2     :     0.005210  d :     0.058836
      dxz     :     0.010688
      dyz     :     0.010573
      dx2y2   :     0.014904
      dxy     :     0.017461
  2 C s       :     2.955674  s :     2.955674
      pz      :     1.091584  p :     2.983658
      px      :     1.074009
      py      :     0.818065
      dz2     :     0.004063  d :     0.047631
      dxz     :     0.007181
      dyz     :     0.007187
      dx2y2   :     0.014664
      dxy     :     0.014536
  3 C s       :     3.293089  s :     3.293089
      pz      :     0.975195  p :     2.696848
      px      :     0.807432
      py      :     0.914222
      dz2     :     0.003179  d :     0.032122
      dxz     :     0.002661
      dyz     :     0.006860
      dx2y2   :     0.010826
      dxy     :     0.008596
  4 C s       :     3.267626  s :     3.267626
      pz      :     1.005572  p :     2.703345
      px      :     0.907156
      py      :     0.790618
      dz2     :     0.002811  d :     0.031152
      dxz     :     0.005739
      dyz     :     0.003168
      dx2y2   :     0.010076
      dxy     :     0.009358
  5 C s       :     3.009591  s :     3.009591
      pz      :     1.035124  p :     2.925583
      px      :     0.924324
      py      :     0.966136
      dz2     :     0.004091  d :     0.049019
      dxz     :     0.007729
      dyz     :     0.007653
      dx2y2   :     0.014072
      dxy     :     0.015474
  6 Cls       :     5.937794  s :     5.937794
      pz      :     3.856393  p :    11.082312
      px      :     3.739340
      py      :     3.486580
      dz2     :     0.004891  d :     0.035260
      dxz     :     0.003921
      dyz     :     0.007513
      dx2y2   :     0.006551
      dxy     :     0.012385
  7 N s       :     3.343051  s :     3.343051
      pz      :     1.558835  p :     3.665990
      px      :     1.073552
      py      :     1.033603
      dz2     :     0.002164  d :     0.020854
      dxz     :     0.003626
      dyz     :     0.002540
      dx2y2   :     0.006095
      dxy     :     0.006429
  8 C s       :     3.018565  s :     3.018565
      pz      :     0.878996  p :     2.788344
      px      :     0.871159
      py      :     1.038188
      dz2     :     0.006648  d :     0.111800
      dxz     :     0.023089
      dyz     :     0.009273
      dx2y2   :     0.047336
      dxy     :     0.025454
  9 O s       :     3.723396  s :     3.723396
      pz      :     1.371776  p :     4.403247
      px      :     1.497625
      py      :     1.533845
      dz2     :     0.002001  d :     0.017600
      dxz     :     0.003166
      dyz     :     0.002372
      dx2y2   :     0.003975
      dxy     :     0.006086
 10 C s       :     3.100797  s :     3.100797
      pz      :     0.879852  p :     2.915872
      px      :     1.006807
      py      :     1.029212
      dz2     :     0.021784  d :     0.077585
      dxz     :     0.017664
      dyz     :     0.016372
      dx2y2   :     0.013832
      dxy     :     0.007934
 11 O s       :     3.733123  s :     3.733123
      pz      :     1.405904  p :     4.502187
      px      :     1.377490
      py      :     1.718793
      dz2     :     0.004847  d :     0.012618
      dxz     :     0.001755
      dyz     :     0.002302
      dx2y2   :     0.001131
      dxy     :     0.002583
 12 C s       :     2.917410  s :     2.917410
      pz      :     0.969894  p :     2.886704
      px      :     0.956557
      py      :     0.960253
      dz2     :     0.006621  d :     0.028395
      dxz     :     0.005749
      dyz     :     0.003220
      dx2y2   :     0.009082
      dxy     :     0.003724
 13 C s       :     3.156077  s :     3.156077
      pz      :     0.873531  p :     2.793498
      px      :     0.982850
      py      :     0.937117
      dz2     :     0.007088  d :     0.091078
      dxz     :     0.008692
      dyz     :     0.016309
      dx2y2   :     0.023402
      dxy     :     0.035586
 14 H s       :     0.969315  s :     0.969315
      pz      :     0.005303  p :     0.023529
      px      :     0.004722
      py      :     0.013504
 15 H s       :     0.938347  s :     0.938347
      pz      :     0.011562  p :     0.021950
      px      :     0.005222
      py      :     0.005166
 16 O s       :     3.740991  s :     3.740991
      pz      :     1.288112  p :     4.382143
      px      :     1.752450
      py      :     1.341581
      dz2     :     0.002364  d :     0.017673
      dxz     :     0.000718
      dyz     :     0.005305
      dx2y2   :     0.005102
      dxy     :     0.004184
 17 C s       :     3.091490  s :     3.091490
      pz      :     1.069499  p :     2.761663
      px      :     0.796198
      py      :     0.895967
      dz2     :     0.006846  d :     0.070386
      dxz     :     0.013085
      dyz     :     0.007098
      dx2y2   :     0.022714
      dxy     :     0.020642
 18 C s       :     3.236615  s :     3.236615
      pz      :     1.004866  p :     2.786371
      px      :     0.838494
      py      :     0.943011
      dz2     :     0.003492  d :     0.033756
      dxz     :     0.005264
      dyz     :     0.005186
      dx2y2   :     0.011209
      dxy     :     0.008604
 19 C s       :     3.180792  s :     3.180792
      pz      :     1.023746  p :     2.810115
      px      :     0.943833
      py      :     0.842536
      dz2     :     0.002906  d :     0.033755
      dxz     :     0.006725
      dyz     :     0.004123
      dx2y2   :     0.008461
      dxy     :     0.011540
 20 C s       :     3.146177  s :     3.146177
      pz      :     1.017973  p :     2.674749
      px      :     0.835384
      py      :     0.821392
      dz2     :     0.006797  d :     0.065645
      dxz     :     0.006686
      dyz     :     0.011843
      dx2y2   :     0.020043
      dxy     :     0.020277
 21 O s       :     3.684364  s :     3.684364
      pz      :     1.596442  p :     4.371056
      px      :     1.236590
      py      :     1.538024
      dz2     :     0.002661  d :     0.023303
      dxz     :     0.004842
      dyz     :     0.003645
      dx2y2   :     0.005878
      dxy     :     0.006277
 22 H s       :     0.975643  s :     0.975643
      pz      :     0.005102  p :     0.022846
      px      :     0.013889
      py      :     0.003854
 23 H s       :     0.966881  s :     0.966881
      pz      :     0.005334  p :     0.023213
      px      :     0.011095
      py      :     0.006785
 24 H s       :     0.970534  s :     0.970534
      pz      :     0.006070  p :     0.023085
      px      :     0.004515
      py      :     0.012500
 25 H s       :     0.945146  s :     0.945146
      pz      :     0.005697  p :     0.023174
      px      :     0.014668
      py      :     0.002809
 26 H s       :     0.981076  s :     0.981076
      pz      :     0.005621  p :     0.022926
      px      :     0.005531
      py      :     0.011775
 27 H s       :     0.818589  s :     0.818589
      pz      :     0.011333  p :     0.041568
      px      :     0.007941
      py      :     0.022295
 28 H s       :     0.743778  s :     0.743778
      pz      :     0.013401  p :     0.064744
      px      :     0.029577
      py      :     0.021765
 29 Cls       :     5.945064  s :     5.945064
      pz      :     3.879448  p :    11.091034
      px      :     3.722540
      py      :     3.489046
      dz2     :     0.005015  d :     0.035516
      dxz     :     0.003934
      dyz     :     0.007431
      dx2y2   :     0.006174
      dxy     :     0.012962


                     *******************************
                     * LOEWDIN POPULATION ANALYSIS *
                     *******************************

----------------------
LOEWDIN ATOMIC CHARGES
----------------------
   0 C :   -0.060238
   1 C :    0.010712
   2 C :   -0.151916
   3 C :   -0.026543
   4 C :   -0.052648
   5 C :   -0.106034
   6 Cl:    0.143712
   7 N :    0.050911
   8 C :    0.024450
   9 O :   -0.149701
  10 C :    0.017249
  11 O :   -0.091842
  12 C :   -0.055041
  13 C :    0.020133
  14 H :    0.021994
  15 H :    0.055676
  16 O :   -0.117121
  17 C :   -0.041785
  18 C :   -0.050550
  19 C :   -0.074664
  20 C :    0.031827
  21 O :    0.102839
  22 H :    0.040163
  23 H :    0.035149
  24 H :    0.034861
  25 H :    0.030906
  26 H :    0.036755
  27 H :    0.101218
  28 H :    0.096041
  29 Cl:    0.123488

-------------------------------
LOEWDIN REDUCED ORBITAL CHARGES
-------------------------------
  0 C s       :     2.852816  s :     2.852816
      pz      :     1.026768  p :     3.102499
      px      :     1.025592
      py      :     1.050139
      dz2     :     0.009301  d :     0.104923
      dxz     :     0.009668
      dyz     :     0.015189
      dx2y2   :     0.030824
      dxy     :     0.039940
  1 C s       :     2.828330  s :     2.828330
      pz      :     0.995618  p :     3.013172
      px      :     1.041717
      py      :     0.975836
      dz2     :     0.011993  d :     0.147787
      dxz     :     0.022529
      dyz     :     0.022961
      dx2y2   :     0.041071
      dxy     :     0.049232
  2 C s       :     2.904418  s :     2.904418
      pz      :     1.087547  p :     3.130723
      px      :     1.044139
      py      :     0.999037
      dz2     :     0.009147  d :     0.116775
      dxz     :     0.015314
      dyz     :     0.014810
      dx2y2   :     0.040136
      dxy     :     0.037368
  3 C s       :     2.869881  s :     2.869881
      pz      :     0.978308  p :     3.069688
      px      :     1.044208
      py      :     1.047173
      dz2     :     0.007606  d :     0.086973
      dxz     :     0.005395
      dyz     :     0.016081
      dx2y2   :     0.031485
      dxy     :     0.026406
  4 C s       :     2.868511  s :     2.868511
      pz      :     1.011358  p :     3.098814
      px      :     1.042287
      py      :     1.045168
      dz2     :     0.006919  d :     0.085323
      dxz     :     0.013077
      dyz     :     0.006739
      dx2y2   :     0.030864
      dxy     :     0.027724
  5 C s       :     2.909930  s :     2.909930
      pz      :     1.031911  p :     3.077641
      px      :     1.055755
      py      :     0.989975
      dz2     :     0.009104  d :     0.118462
      dxz     :     0.016214
      dyz     :     0.016138
      dx2y2   :     0.038364
      dxy     :     0.038643
  6 Cls       :     5.767250  s :     5.767250
      pz      :     3.842622  p :    11.048792
      px      :     3.724104
      py      :     3.482066
      dz2     :     0.005519  d :     0.040246
      dxz     :     0.004421
      dyz     :     0.008292
      dx2y2   :     0.007145
      dxy     :     0.014869
  7 N s       :     3.048018  s :     3.048018
      pz      :     1.508665  p :     3.844480
      px      :     1.179304
      py      :     1.156511
      dz2     :     0.004760  d :     0.056591
      dxz     :     0.007856
      dyz     :     0.004788
      dx2y2   :     0.018912
      dxy     :     0.020276
  8 C s       :     2.842949  s :     2.842949
      pz      :     0.863937  p :     2.868446
      px      :     0.968535
      py      :     1.035975
      dz2     :     0.016164  d :     0.264155
      dxz     :     0.047551
      dyz     :     0.018857
      dx2y2   :     0.119229
      dxy     :     0.062354
  9 O s       :     3.554040  s :     3.554040
      pz      :     1.380518  p :     4.564810
      px      :     1.579546
      py      :     1.604747
      dz2     :     0.004278  d :     0.030851
      dxz     :     0.004170
      dyz     :     0.003084
      dx2y2   :     0.006398
      dxy     :     0.012920
 10 C s       :     2.848158  s :     2.848158
      pz      :     0.909483  p :     2.957245
      px      :     0.999083
      py      :     1.048678
      dz2     :     0.049337  d :     0.177348
      dxz     :     0.037238
      dyz     :     0.035478
      dx2y2   :     0.036781
      dxy     :     0.018514
 11 O s       :     3.460012  s :     3.460012
      pz      :     1.457778  p :     4.607450
      px      :     1.428965
      py      :     1.720706
      dz2     :     0.009767  d :     0.024380
      dxz     :     0.003611
      dyz     :     0.003376
[...]
      dxz     :     0.005849
      dyz     :     0.004577
      dx2y2   :     0.008188
      dxy     :     0.006542
 19 C s       :     3.197663  s :     3.197663
      pz      :     0.950525  p :     2.799703
      px      :     0.913561
      py      :     0.935616
      dz2     :     0.004219  d :     0.030923
      dxz     :     0.008043
      dyz     :     0.004365
      dx2y2   :     0.006164
      dxy     :     0.008133
 20 C s       :     3.178164  s :     3.178164
      pz      :     0.913782  p :     2.634922
      px      :     0.811819
      py      :     0.909320
      dz2     :     0.012049  d :     0.060795
      dxz     :     0.012743
      dyz     :     0.009001
      dx2y2   :     0.013355
      dxy     :     0.013647
 21 O s       :     3.743407  s :     3.743407
      pz      :     1.568146  p :     4.385639
      px      :     1.233700
      py      :     1.583793
      dz2     :     0.003369  d :     0.020192
      dxz     :     0.004603
      dyz     :     0.003427
      dx2y2   :     0.003460
      dxy     :     0.005333
 22 H s       :     0.965587  s :     0.965587
      pz      :     0.004925  p :     0.022154
      px      :     0.013640
      py      :     0.003588
 23 H s       :     0.949996  s :     0.949996
      pz      :     0.005831  p :     0.023091
      px      :     0.010925
      py      :     0.006336
 24 H s       :     0.953541  s :     0.953541
      pz      :     0.008842  p :     0.022407
      px      :     0.004762
      py      :     0.008803
 25 H s       :     0.936787  s :     0.936787
      pz      :     0.003949  p :     0.021791
      px      :     0.013679
      py      :     0.004163
 26 H s       :     0.970964  s :     0.970964
      pz      :     0.005168  p :     0.022225
      px      :     0.006502
      py      :     0.010556
 27 H s       :     0.822170  s :     0.822170
      pz      :     0.010805  p :     0.041819
      px      :     0.007026
      py      :     0.023988
 28 H s       :     0.749301  s :     0.749301
      pz      :     0.015018  p :     0.066965
      px      :     0.030504
      py      :     0.021443
 29 Cls       :     5.945940  s :     5.945940
      pz      :     3.909477  p :    11.087889
      px      :     3.824463
      py      :     3.353950
      dz2     :     0.005020  d :     0.036323
      dxz     :     0.001943
      dyz     :     0.008728
      dx2y2   :     0.009575
      dxy     :     0.011056


                     *******************************
                     * LOEWDIN POPULATION ANALYSIS *
                     *******************************

----------------------
LOEWDIN ATOMIC CHARGES
----------------------
   0 C :   -0.058848
   1 C :    0.010647
   2 C :   -0.155761
   3 C :   -0.030059
   4 C :   -0.053363
   5 C :   -0.113003
   6 Cl:    0.144513
   7 N :    0.040207
   8 C :    0.053087
   9 O :   -0.147038
  10 C :    0.013304
  11 O :   -0.083202
  12 C :   -0.057306
  13 C :    0.032809
  14 H :    0.036704
  15 H :    0.048876
  16 O :   -0.130619
  17 C :   -0.026058
  18 C :   -0.047848
  19 C :   -0.079598
  20 C :    0.051046
  21 O :    0.048217
  22 H :    0.045179
  23 H :    0.039234
  24 H :    0.040800
  25 H :    0.034145
  26 H :    0.042405
  27 H :    0.092697
  28 H :    0.079674
  29 Cl:    0.129157

-------------------------------
LOEWDIN REDUCED ORBITAL CHARGES
-------------------------------
  0 C s       :     2.859894  s :     2.859894
      pz      :     1.020922  p :     3.097383
      px      :     1.026581
      py      :     1.049881
      dz2     :     0.008134  d :     0.101571
      dxz     :     0.009198
      dyz     :     0.013899
      dx2y2   :     0.033080
      dxy     :     0.037261
  1 C s       :     2.836130  s :     2.836130
      pz      :     0.997197  p :     3.011782
      px      :     1.021541
      py      :     0.993044
      dz2     :     0.010165  d :     0.141441
      dxz     :     0.023144
      dyz     :     0.020134
      dx2y2   :     0.037357
      dxy     :     0.050642
  2 C s       :     2.905793  s :     2.905793
      pz      :     1.097629  p :     3.132761
      px      :     1.065328
      py      :     0.969803
      dz2     :     0.008355  d :     0.117208
      dxz     :     0.013838
      dyz     :     0.014594
      dx2y2   :     0.042595
      dxy     :     0.037826
  3 C s       :     2.873954  s :     2.873954
      pz      :     0.976759  p :     3.069917
      px      :     1.040381
      py      :     1.052777
      dz2     :     0.006432  d :     0.086188
      dxz     :     0.004265
      dyz     :     0.015996
      dx2y2   :     0.030285
      dxy     :     0.029210
  4 C s       :     2.873067  s :     2.873067
      pz      :     1.008757  p :     3.095851
      px      :     1.038597
      py      :     1.048497
      dz2     :     0.006470  d :     0.084444
      dxz     :     0.010776
      dyz     :     0.007156
      dx2y2   :     0.030930
      dxy     :     0.029113
  5 C s       :     2.908793  s :     2.908793
      pz      :     1.039923  p :     3.083603
      px      :     1.078356
      py      :     0.965324
      dz2     :     0.008125  d :     0.120607
      dxz     :     0.015154
      dyz     :     0.015646
      dx2y2   :     0.040579
      dxy     :     0.041102
  6 Cls       :     5.763981  s :     5.763981
      pz      :     3.880073  p :    11.050308
      px      :     3.794305
      py      :     3.375930
      dz2     :     0.005847  d :     0.041198
      dxz     :     0.002179
      dyz     :     0.008694
      dx2y2   :     0.010973
      dxy     :     0.013505
  7 N s       :     3.058433  s :     3.058433
      pz      :     1.525924  p :     3.846830
      px      :     1.169868
      py      :     1.151038
      dz2     :     0.004740  d :     0.054530
      dxz     :     0.007096
      dyz     :     0.003386
      dx2y2   :     0.018665
      dxy     :     0.020644
  8 C s       :     2.856624  s :     2.856624
      pz      :     0.846800  p :     2.837518
      px      :     0.966695
      py      :     1.024023
      dz2     :     0.017127  d :     0.252770
      dxz     :     0.048362
      dyz     :     0.013872
      dx2y2   :     0.103782
      dxy     :     0.069628
  9 O s       :     3.552647  s :     3.552647
      pz      :     1.389425  p :     4.563306
      px      :     1.512675
      py      :     1.661207
      dz2     :     0.004189  d :     0.031085
      dxz     :     0.005716
      dyz     :     0.002180
      dx2y2   :     0.007634
      dxy     :     0.011365
 10 C s       :     2.861614  s :     2.861614
      pz      :     0.937439  p :     2.953860
      px      :     0.992148
      py      :     1.024273
      dz2     :     0.050833  d :     0.171222
      dxz     :     0.034689
      dyz     :     0.028497
      dx2y2   :     0.041872
      dxy     :     0.015330
 11 O s       :     3.458430  s :     3.458430
      pz      :     1.523506  p :     4.600398
      px      :     1.407116
      py      :     1.669777
      dz2     :     0.007107  d :     0.024373
      dxz     :     0.003364
      dyz     :     0.004543
      dx2y2   :     0.002232
      dxy     :     0.007127
 12 C s       :     2.870427  s :     2.870427
      pz      :     1.025222  p :     3.109764
      px      :     1.028221
      py      :     1.056321
      dz2     :     0.016576  d :     0.077114
      dxz     :     0.018921
      dyz     :     0.009620
      dx2y2   :     0.022268
      dxy     :     0.009729
 13 C s       :     2.878567  s :     2.878567
      pz      :     0.925897  p :     2.875286
      px      :     1.030809
      py      :     0.918580
      dz2     :     0.036200  d :     0.213338
      dxz     :     0.053834
      dyz     :     0.035233
      dx2y2   :     0.033436
      dxy     :     0.054634
 14 H s       :     0.893015  s :     0.893015
      pz      :     0.013131  p :     0.070281
      px      :     0.013878
      py      :     0.043272
 15 H s       :     0.883933  s :     0.883933
      pz      :     0.031060  p :     0.067191
      px      :     0.021075
      py      :     0.015056
 16 O s       :     3.559364  s :     3.559364
      pz      :     1.392246  p :     4.541336
      px      :     1.772682
      py      :     1.376407
      dz2     :     0.005898  d :     0.029919
      dxz     :     0.003817
      dyz     :     0.011773
      dx2y2   :     0.004666
      dxy     :     0.003764
 17 C s       :     2.881551  s :     2.881551
      pz      :     1.064956  p :     2.994178
      px      :     0.877433
      py      :     1.051789
      dz2     :     0.022886  d :     0.150330
      dxz     :     0.032749
      dyz     :     0.017008
      dx2y2   :     0.040904
      dxy     :     0.036783
 18 C s       :     2.882518  s :     2.882518
      pz      :     1.013573  p :     3.079892
      px      :     1.042721
      py      :     1.023598
      dz2     :     0.014800  d :     0.085438
      dxz     :     0.015608
      dyz     :     0.014030
      dx2y2   :     0.023598
      dxy     :     0.017402
 19 C s       :     2.878570  s :     2.878570
      pz      :     1.037616  p :     3.115477
      px      :     1.038140
      py      :     1.039720
      dz2     :     0.009327  d :     0.085551
      dxz     :     0.022005
      dyz     :     0.012355
      dx2y2   :     0.019126
      dxy     :     0.022738
 20 C s       :     2.887356  s :     2.887356
      pz      :     0.965187  p :     2.923146
      px      :     0.980391
      py      :     0.977567
      dz2     :     0.025274  d :     0.138452
      dxz     :     0.029277
      dyz     :     0.022274
      dx2y2   :     0.029434
      dxy     :     0.032194
 21 O s       :     3.441925  s :     3.441925
      pz      :     1.579946  p :     4.472066
      px      :     1.293820
      py      :     1.598300
      dz2     :     0.005179  d :     0.037792
      dxz     :     0.009528
      dyz     :     0.005090
      dx2y2   :     0.007065
      dxy     :     0.010930
 22 H s       :     0.887712  s :     0.887712
      pz      :     0.014065  p :     0.067109
      px      :     0.042835
      py      :     0.010210
 23 H s       :     0.888647  s :     0.888647
      pz      :     0.017399  p :     0.072119
      px      :     0.034826
      py      :     0.019894
 24 H s       :     0.890736  s :     0.890736
      pz      :     0.026751  p :     0.068463
      px      :     0.014992
      py      :     0.026720
 25 H s       :     0.896433  s :     0.896433
      pz      :     0.012319  p :     0.069423
      px      :     0.043890
      py      :     0.013214
 26 H s       :     0.889593  s :     0.889593
      pz      :     0.015067  p :     0.068002
      px      :     0.020318
      py      :     0.032616
 27 H s       :     0.785564  s :     0.785564
      pz      :     0.033958  p :     0.121738
      px      :     0.019927
      py      :     0.067853
 28 H s       :     0.742194  s :     0.742194
      pz      :     0.038264  p :     0.178132
      px      :     0.079145
      py      :     0.060724
 29 Cls       :     5.764775  s :     5.764775
      pz      :     3.893932  p :    11.063736
      px      :     3.798433
      py      :     3.371371
      dz2     :     0.005907  d :     0.042331
      dxz     :     0.002119
      dyz     :     0.009704
      dx2y2   :     0.011315
      dxy     :     0.013286


                      *****************************
                      * MAYER POPULATION ANALYSIS *
                      *****************************

  NA   - Mulliken gross atomic population
  ZA   - Total nuclear charge
  QA   - Mulliken gross atomic charge
  VA   - Mayer's total valence
  BVA  - Mayer's bonded valence
  FA   - Mayer's free valence

  ATOM       NA         ZA         QA         VA         BVA        FA
  0 C      5.9258     6.0000     0.0742     3.9173     3.9173    -0.0000
  1 C      5.9316     6.0000     0.0684     4.1858     4.1858    -0.0000
  2 C      5.9756     6.0000     0.0244     3.8111     3.8111    -0.0000
  3 C      6.0336     6.0000    -0.0336     3.8889     3.8889    -0.0000
  4 C      5.9959     6.0000     0.0041     3.8215     3.8215    -0.0000
  5 C      6.0121     6.0000    -0.0121     3.9130     3.9130    -0.0000
  6 Cl    17.0546    17.0000    -0.0546     1.2283     1.2283    -0.0000
  7 N      7.0662     7.0000    -0.0662     3.3128     3.3128    -0.0000
  8 C      5.8482     6.0000     0.1518     4.2024     4.2024    -0.0000
  9 O      8.1591     8.0000    -0.1591     2.3764     2.3764    -0.0000
 10 C      6.1495     6.0000    -0.1495     4.0195     4.0195    -0.0000
 11 O      8.2251     8.0000    -0.2251     2.1946     2.1946    -0.0000
 12 C      5.8692     6.0000     0.1308     3.7450     3.7450    -0.0000
 13 C      5.9823     6.0000     0.0177     4.2704     4.2704    -0.0000
 14 H      0.9557     1.0000     0.0443     1.0152     1.0152    -0.0000
 15 H      0.9717     1.0000     0.0283     1.0151     1.0151    -0.0000
 16 O      8.1506     8.0000    -0.1506     2.3484     2.3484    -0.0000
 17 C      5.9571     6.0000     0.0429     3.7163     3.7163    -0.0000
 18 C      6.0458     6.0000    -0.0458     3.8253     3.8253    -0.0000
 19 C      6.0283     6.0000    -0.0283     3.7671     3.7671    -0.0000
 20 C      5.8739     6.0000     0.1261     3.8160     3.8160    -0.0000
 21 O      8.1492     8.0000    -0.1492     2.4669     2.4669    -0.0000
 22 H      0.9877     1.0000     0.0123     0.9982     0.9982     0.0000
 23 H      0.9731     1.0000     0.0269     1.0276     1.0276     0.0000
 24 H      0.9759     1.0000     0.0241     0.9904     0.9904    -0.0000
 25 H      0.9586     1.0000     0.0414     0.9950     0.9950    -0.0000
 26 H      0.9932     1.0000     0.0068     0.9999     0.9999    -0.0000
 27 H      0.8640     1.0000     0.1360     1.0209     1.0209     0.0000
 28 H      0.8163     1.0000     0.1837     1.0428     1.0428    -0.0000
 29 Cl    17.0702    17.0000    -0.0702     1.1832     1.1832    -0.0000

  Mayer bond orders larger than 0.100000
B(  0-C ,  1-C ) :   1.3544 B(  0-C ,  5-C ) :   1.4560 B(  0-C , 10-C ) :   0.9254 
B(  1-C ,  2-C ) :   1.3785 B(  1-C ,  7-N ) :   1.1236 B(  2-C ,  3-C ) :   1.3464 
B(  2-C , 29-Cl) :   0.9932 B(  3-C ,  4-C ) :   1.3454 B(  3-C , 22-H ) :   0.9765 
B(  4-C ,  5-C ) :   1.3162 B(  4-C , 26-H ) :   0.9794 B(  5-C ,  6-Cl) :   1.0350 
B(  7-N ,  8-C ) :   1.1346 B(  7-N , 27-H ) :   0.8989 B(  8-C ,  9-O ) :   2.1331 
B(  8-C , 10-C ) :   0.8413 B( 10-C , 11-O ) :   1.1424 B( 10-C , 12-C ) :   0.9654 
B( 11-O , 28-H ) :   0.9335 B( 12-C , 13-C ) :   1.0215 B( 12-C , 14-H ) :   0.8913 
B( 12-C , 15-H ) :   0.8814 B( 13-C , 16-O ) :   2.1590 B( 13-C , 17-C ) :   0.9665 
B( 17-C , 18-C ) :   1.4610 B( 17-C , 20-C ) :   0.1065 B( 17-C , 21-O ) :   1.1458 
B( 18-C , 19-C ) :   1.2468 B( 18-C , 23-H ) :   0.9789 B( 19-C , 20-C ) :   1.4714 
B( 19-C , 24-H ) :   0.9891 B( 20-C , 21-O ) :   1.1897 B( 20-C , 25-H ) :   0.9905 


-------
TIMINGS
-------

Total SCF time: 0 days 0 hours 0 min 15 sec 

Total time                  ....      15.831 sec
Sum of individual times     ....      15.523 sec  ( 98.1%)

Fock matrix formation       ....      13.989 sec  ( 88.4%)
  Split-RI-J                ....       5.533 sec  ( 39.6% of F)
  XC integration            ....       8.440 sec  ( 60.3% of F)
    Basis function eval.    ....       3.338 sec  ( 39.5% of XC)
    Density eval.           ....       2.069 sec  ( 24.5% of XC)
    XC-Functional eval.     ....       0.370 sec  (  4.4% of XC)
    XC-Potential eval.      ....       2.200 sec  ( 26.1% of XC)
Diagonalization             ....       0.011 sec  (  0.1%)
Density matrix formation    ....       0.016 sec  (  0.1%)
Population analysis         ....       0.041 sec  (  0.3%)
Initial guess               ....       0.013 sec  (  0.1%)
Orbital Transformation      ....       0.000 sec  (  0.0%)
Orbital Orthonormalization  ....       0.008 sec  (  0.1%)
DIIS solution               ....       0.002 sec  (  0.0%)
SOSCF solution              ....       0.045 sec  (  0.3%)
Grid generation             ....       1.406 sec  (  8.9%)

Maximum memory used throughout the entire SCF-calculation: 118.5 MB


-------------------------------------------------------------------------------
                          DFT DISPERSION CORRECTION                            
                                                                               
                              DFTD3 V3.1  Rev 1                                
                          USING Becke-Johnson damping                          
-------------------------------------------------------------------------------
The BP86 functional is recognized
Active option DFTDOPT                   ...         4   

molecular C6(AA) [au] = 14401.798475 


            DFT-D V3
 parameters
 s6 scaling factor         :     1.0000 
 a1 scaling factor         :     0.3946 
 s8 scaling factor         :     3.2822 
 a2 scaling factor         :     4.8516 
 ad hoc parameters k1-k3   :    16.0000     1.3333    -4.0000 

 Edisp/kcal,au: -45.454177299628  -0.072435834565 
 E6   /kcal   : -16.584190213 
 E8   /kcal   : -28.869987086 
 % E8         :  63.514486020 

-------------------------   ----------------
Dispersion correction           -0.072435835
-------------------------   ----------------


-------------------------   --------------------
FINAL SINGLE POINT ENERGY     -1814.202241083799
-------------------------   --------------------

                                *** OPTIMIZATION RUN DONE ***

                            ***************************************
                            *     ORCA property calculations      *
                            ***************************************

                                    ---------------------
                                    Active property flags
                                    ---------------------
   (+) Dipole Moment


------------------------------------------------------------------------------
                       ORCA ELECTRIC PROPERTIES CALCULATION
------------------------------------------------------------------------------

Dipole Moment Calculation                       ... on
Quadrupole Moment Calculation                   ... off
Polarizability Calculation                      ... off
GBWName                                         ... input.gbw
Electron density                                ... input.scfp
The origin for moment calculation is the CENTER OF MASS  = ( 2.757757,  2.574956  0.025663)

-------------
DIPOLE MOMENT
-------------
                                X             Y             Z
Electronic contribution:    -13.74521      -5.11218      -0.03446
Nuclear contribution   :     13.07356       5.85835       0.67332
                        -----------------------------------------
Total Dipole Moment    :     -0.67165       0.74618       0.63886
                        -----------------------------------------
Magnitude (a.u.)       :      1.18997
Magnitude (Debye)      :      3.02467



--------------------
Rotational spectrum 
--------------------
 
Rotational constants in cm-1:     0.016605     0.005421     0.004438 
Rotational constants in MHz :   497.799176   162.521455   133.037672 

 Dipole components along the rotational axes: 
x,y,z [a.u.] :    -0.486001     1.001328     0.420933 
x,y,z [Debye]:    -1.235315     2.545173     1.069926 

 

Timings for individual modules:

Sum of individual times         ...      546.991 sec (=   9.117 min)
GTO integral calculation        ...        3.414 sec (=   0.057 min)   0.6 %
SCF iterations                  ...      370.368 sec (=   6.173 min)  67.7 %
SCF Gradient evaluation         ...      171.836 sec (=   2.864 min)  31.4 %
Geometry relaxation             ...        1.373 sec (=   0.023 min)   0.3 %
                             ****ORCA TERMINATED NORMALLY****
TOTAL RUN TIME: 0 days 0 hours 9 minutes 9 seconds 311 msec
