
                                 *****************
                                 * O   R   C   A *
                                 *****************

                                            #,                                       
                                            ###                                      
                                            ####                                     
                                            #####                                    
                                            ######                                   
                                           ########,                                 
                                     ,,################,,,,,                         
                               ,,#################################,,                 
                          ,,##########################################,,             
                       ,#########################################, ''#####,          
                    ,#############################################,,   '####,        
                  ,##################################################,,,,####,       
                ,###########''''           ''''###############################       
              ,#####''   ,,,,##########,,,,          '''####'''          '####       
            ,##' ,,,,###########################,,,                        '##       
           ' ,,###''''                  '''############,,,                           
         ,,##''                                '''############,,,,        ,,,,,,###''
      ,#''                                            '''#######################'''  
     '                                                          ''''####''''         
             ,#######,   #######,   ,#######,      ##                                
            ,#'     '#,  ##    ##  ,#'     '#,    #''#        ######   ,####,        
            ##       ##  ##   ,#'  ##            #'  '#       #        #'  '#        
            ##       ##  #######   ##           ,######,      #####,   #    #        
            '#,     ,#'  ##    ##  '#,     ,#' ,#      #,         ##   #,  ,#        
             '#######'   ##     ##  '#######'  #'      '#     #####' # '####'        



                  #######################################################
                  #                        -***-                        #
                  #          Department of theory and spectroscopy      #
                  #    Directorship and core code : Frank Neese         #
                  #        Max Planck Institute fuer Kohlenforschung    #
                  #                Kaiser Wilhelm Platz 1               #
                  #                 D-45470 Muelheim/Ruhr               #
                  #                      Germany                        #
                  #                                                     #
                  #                  All rights reserved                #
                  #                        -***-                        #
                  #######################################################


                         Program Version 5.0.4 -  RELEASE  -


 With contributions from (in alphabetic order):
   Daniel Aravena         : Magnetic Suceptibility
   Michael Atanasov       : Ab Initio Ligand Field Theory (pilot matlab implementation)
   Alexander A. Auer      : GIAO ZORA, VPT2 properties, NMR spectrum
   Ute Becker             : Parallelization
   Giovanni Bistoni       : ED, misc. LED, open-shell LED, HFLD
   Martin Brehm           : Molecular dynamics
   Dmytro Bykov           : SCF Hessian
   Vijay G. Chilkuri      : MRCI spin determinant printing, contributions to CSF-ICE
   Dipayan Datta          : RHF DLPNO-CCSD density
   Achintya Kumar Dutta   : EOM-CC, STEOM-CC
   Dmitry Ganyushin       : Spin-Orbit,Spin-Spin,Magnetic field MRCI
   Miquel Garcia          : C-PCM and meta-GGA Hessian, CC/C-PCM, Gaussian charge scheme
   Yang Guo               : DLPNO-NEVPT2, F12-NEVPT2, CIM, IAO-localization
   Andreas Hansen         : Spin unrestricted coupled pair/coupled cluster methods
   Benjamin Helmich-Paris : MC-RPA, TRAH-SCF, COSX integrals
   Lee Huntington         : MR-EOM, pCC
   Robert Izsak           : Overlap fitted RIJCOSX, COSX-SCS-MP3, EOM
   Marcus Kettner         : VPT2
   Christian Kollmar      : KDIIS, OOCD, Brueckner-CCSD(T), CCSD density, CASPT2, CASPT2-K
   Simone Kossmann        : Meta GGA functionals, TD-DFT gradient, OOMP2, MP2 Hessian
   Martin Krupicka        : Initial AUTO-CI
   Lucas Lang             : DCDCAS
   Marvin Lechner         : AUTO-CI (C++ implementation), FIC-MRCC
   Dagmar Lenk            : GEPOL surface, SMD
   Dimitrios Liakos       : Extrapolation schemes; Compound Job, initial MDCI parallelization
   Dimitrios Manganas     : Further ROCIS development; embedding schemes
   Dimitrios Pantazis     : SARC Basis sets
   Anastasios Papadopoulos: AUTO-CI, single reference methods and gradients
   Taras Petrenko         : DFT Hessian,TD-DFT gradient, ASA, ECA, R-Raman, ABS, FL, XAS/XES, NRVS
   Peter Pinski           : DLPNO-MP2, DLPNO-MP2 Gradient
   Christoph Reimann      : Effective Core Potentials
   Marius Retegan         : Local ZFS, SOC
   Christoph Riplinger    : Optimizer, TS searches, QM/MM, DLPNO-CCSD(T), (RO)-DLPNO pert. Triples
   Tobias Risthaus        : Range-separated hybrids, TD-DFT gradient, RPA, STAB
   Michael Roemelt        : Original ROCIS implementation
   Masaaki Saitow         : Open-shell DLPNO-CCSD energy and density
   Barbara Sandhoefer     : DKH picture change effects
   Avijit Sen             : IP-ROCIS
   Kantharuban Sivalingam : CASSCF convergence, NEVPT2, FIC-MRCI
   Bernardo de Souza      : ESD, SOC TD-DFT
   Georgi Stoychev        : AutoAux, RI-MP2 NMR, DLPNO-MP2 response
   Willem Van den Heuvel  : Paramagnetic NMR
   Boris Wezisla          : Elementary symmetry handling
   Frank Wennmohs         : Technical directorship


 We gratefully acknowledge several colleagues who have allowed us to
 interface, adapt or use parts of their codes:
   Stefan Grimme, W. Hujo, H. Kruse, P. Pracht,  : VdW corrections, initial TS optimization,
                  C. Bannwarth, S. Ehlert          DFT functionals, gCP, sTDA/sTD-DF
   Ed Valeev, F. Pavosevic, A. Kumar             : LibInt (2-el integral package), F12 methods
   Garnet Chan, S. Sharma, J. Yang, R. Olivares  : DMRG
   Ulf Ekstrom                                   : XCFun DFT Library
   Mihaly Kallay                                 : mrcc  (arbitrary order and MRCC methods)
   Jiri Pittner, Ondrej Demel                    : Mk-CCSD
   Frank Weinhold                                : gennbo (NPA and NBO analysis)
   Christopher J. Cramer and Donald G. Truhlar   : smd solvation model
   Lars Goerigk                                  : TD-DFT with DH, B97 family of functionals
   V. Asgeirsson, H. Jonsson                     : NEB implementation
   FAccTs GmbH                                   : IRC, NEB, NEB-TS, DLPNO-Multilevel, CI-OPT
                                                   MM, QMMM, 2- and 3-layer-ONIOM, Crystal-QMMM,
                                                   LR-CPCM, SF, NACMEs, symmetry and pop. for TD-DFT,
                                                   nearIR, NL-DFT gradient (VV10), updates on ESD,
                                                   ML-optimized integration grids
   S Lehtola, MJT Oliveira, MAL Marques          : LibXC Library
   Liviu Ungur et al                             : ANISO software


 Your calculation uses the libint2 library for the computation of 2-el integrals
 For citations please refer to: http://libint.valeyev.net

 Your ORCA version has been built with support for libXC version: 5.1.0
 For citations please refer to: https://tddft.org/programs/libxc/

 This ORCA versions uses:
   CBLAS   interface :  Fast vector & matrix operations
   LAPACKE interface :  Fast linear algebra routines
   SCALAPACK package :  Parallel linear algebra routines
   Shared memory     :  Shared parallel matrices


Your calculation utilizes the atom-pairwise dispersion correction
with the Becke-Johnson damping scheme (D3BJ)
Cite in your paper:
S.Grimme, S.Ehrlich, L.Goerigk, J Comput Chem, (2011), 32, 1456–1465 
S.Grimme, J.Antony, S.Ehrlich and H.Krieg, J.Chem.Phys., 132, (2010), 154104 
   

================================================================================

----- Orbital basis set information -----
Your calculation utilizes the basis: def2-SVP
   F. Weigend and R. Ahlrichs, Phys. Chem. Chem. Phys. 7, 3297 (2005).

----- AuxJ basis set information -----
Your calculation utilizes the auxiliary basis: def2/J
   F. Weigend, Phys. Chem. Chem. Phys. 8, 1057 (2006).

================================================================================
                                        WARNINGS
                       Please study these warnings very carefully!
================================================================================


WARNING: Geometry Optimization
  ===> : Switching off AutoStart
         For restart on a previous wavefunction, please use MOREAD

INFO   : the flag for use of the SHARK integral package has been found!

================================================================================
                                       INPUT FILE
================================================================================
NAME = input.inp
|  1> %pal nprocs 1 END
|  2> %MaxCore 3000
|  3> 
|  4> !BP86 D3BJ DEF2-SVP TightSCF
|  5> !OPT
|  6> 
|  7> * xyz 0 1 
|  8> C          0.14900        1.24780        0.36290
|  9> C         -0.64760        0.16410        0.03540
| 10> C         -2.04590        0.27620       -0.06800
| 11> C         -2.61990        1.53690        0.17990
| 12> C         -1.81730        2.63710        0.52570
| 13> C         -0.42400        2.50380        0.62310
| 14> C         -2.94080       -0.87730       -0.42280
| 15> H         -2.38400       -1.81710       -0.59680
| 16> H         -3.50390       -0.63630       -1.34900
| 17> H         -3.66290       -1.05270        0.40220
| 18> Cl         0.53770        3.90030        1.08520
| 19> N          0.13500       -0.98630       -0.14220
| 20> C          1.42120       -0.65100        0.07080
| 21> O          2.32420       -1.47050        0.01470
| 22> C          1.60190        0.82480        0.39060
| 23> O          2.11720        1.02010        1.68430
| 24> C          2.42840        1.59170       -0.67750
| 25> C          3.89860        1.22630       -0.70720
| 26> H          2.33220        2.67060       -0.47790
| 27> H          1.99580        1.41530       -1.68670
| 28> O          4.22630        0.09090       -1.01260
| 29> C          4.96940        2.20400       -0.40540
| 30> C          4.82700        3.53470       -0.04650
| 31> C          6.10390        4.01650        0.12780
| 32> C          6.95160        2.96160       -0.13090
| 33> O          6.24810        1.89730       -0.44500
| 34> H         -3.69300        1.66820        0.11320
| 35> H          3.91750        4.10460        0.07930
| 36> H          6.38530        5.02180        0.41150
| 37> H          8.03210        2.98960       -0.08630
| 38> H         -2.28360        3.59430        0.72150
| 39> H         -0.19460       -1.93420       -0.37140
| 40> H          2.96620        0.51030        1.75130
| 41> **                         ****END OF INPUT****
================================================================================

                       *****************************
                       * Geometry Optimization Run *
                       *****************************

Geometry optimization settings:
Update method            Update   .... BFGS
Choice of coordinates    CoordSys .... Z-matrix Internals
Initial Hessian          InHess   .... Almoef's Model

Convergence Tolerances:
Energy Change            TolE     ....  5.0000e-06 Eh
Max. Gradient            TolMAXG  ....  3.0000e-04 Eh/bohr
RMS Gradient             TolRMSG  ....  1.0000e-04 Eh/bohr
Max. Displacement        TolMAXD  ....  4.0000e-03 bohr
RMS Displacement         TolRMSD  ....  2.0000e-03 bohr
Strict Convergence                ....  False
------------------------------------------------------------------------------
                        ORCA OPTIMIZATION COORDINATE SETUP
------------------------------------------------------------------------------

The optimization will be done in new redundant internal coordinates
Making redundant internal coordinates   ...  (new redundants) done
Evaluating the initial hessian          ...  (Almloef) done
Evaluating the coordinates              ...  done
Calculating the B-matrix                .... done
Calculating the G-matrix                .... done
Diagonalizing the G-matrix              .... done
Small eigenvalue found = 4.432e-03
Small eigenvalue found = 1.008e-02
Small eigenvalue found = 2.335e-02
Small eigenvalue found = 2.937e-02
The first mode is                       ....   89
The number of degrees of freedom        ....   93

    -----------------------------------------------------------------
                    Redundant Internal Coordinates


    -----------------------------------------------------------------
         Definition                    Initial Value    Approx d2E/dq
    -----------------------------------------------------------------
      1. B(C   1,C   0)                  1.3843         0.638062   
      2. B(C   2,C   1)                  1.4066         0.587851   
      3. B(C   3,C   2)                  1.4072         0.586476   
      4. B(C   4,C   3)                  1.4051         0.591176   
      5. B(C   5,C   4)                  1.4030         0.595557   
      6. B(C   5,C   0)                  1.4048         0.591651   
      7. B(C   6,C   2)                  1.5024         0.413396   
      8. B(H   7,C   6)                  1.1061         0.339380   
      9. B(H   8,C   6)                  1.1104         0.334088   
     10. B(H   9,C   6)                  1.1103         0.334194   
     11. B(Cl 10,C   5)                  1.7574         0.363495   
     12. B(N  11,C   1)                  1.4026         0.534188   
     13. B(C  12,N  11)                  1.3461         0.657421   
     14. B(O  13,C  12)                  1.2207         1.042232   
     15. B(C  14,C   0)                  1.5135         0.396952   
     16. B(C  14,C  12)                  1.5208         0.386380   
     17. B(O  15,C  14)                  1.4062         0.527309   
     18. B(C  16,C  14)                  1.5531         0.343199   
     19. B(C  17,C  16)                  1.5152         0.394421   
     20. B(H  18,C  16)                  1.1014         0.345309   
     21. B(H  19,C  16)                  1.1121         0.332032   
     22. B(O  20,C  17)                  1.2206         1.042776   
     23. B(C  21,C  17)                  1.4811         0.447125   
     24. B(C  22,C  21)                  1.3856         0.635010   
     25. B(C  23,C  22)                  1.3759         0.658114   
     26. B(C  24,C  23)                  1.3778         0.653434   
     27. B(O  25,C  24)                  1.3139         0.740125   
     28. B(O  25,C  21)                  1.3156         0.735588   
     29. B(H  26,C   3)                  1.0832         0.369265   
     30. B(H  27,C  22)                  1.0806         0.372685   
     31. B(H  28,C  23)                  1.0818         0.371107   
     32. B(H  29,C  24)                  1.0818         0.371136   
     33. B(H  30,C   4)                  1.0826         0.370035   
     34. B(H  31,N  11)                  1.0294         0.402929   
     35. B(H  32,O  15)                  0.9926         0.461329   
     36. A(C   1,C   0,C   5)          120.5987         0.432656   
     37. A(C   5,C   0,C  14)          129.6457         0.397653   
     38. A(C   1,C   0,C  14)          109.7525         0.402974   
     39. A(C   2,C   1,N  11)          127.6409         0.415916   
     40. A(C   0,C   1,N  11)          110.5457         0.422038   
     41. A(C   0,C   1,C   2)          121.8077         0.432156   
     42. A(C   3,C   2,C   6)          119.1080         0.399883   
     43. A(C   1,C   2,C   6)          123.2502         0.400048   
     44. A(C   1,C   2,C   3)          117.6414         0.425670   
     45. A(C   2,C   3,H  26)          120.1228         0.351096   
     46. A(C   2,C   3,C   4)          120.7873         0.426100   
     47. A(C   4,C   3,H  26)          119.0882         0.351570   
     48. A(C   3,C   4,H  30)          119.3936         0.351694   
     49. A(C   5,C   4,H  30)          119.9458         0.352133   
     50. A(C   3,C   4,C   5)          120.6602         0.427274   
     51. A(C   0,C   5,Cl 10)          122.4075         0.409016   
     52. A(C   4,C   5,Cl 10)          119.0893         0.409493   
     53. A(C   0,C   5,C   4)          118.4979         0.427336   
     54. A(C   2,C   6,H   9)          109.4625         0.325741   
     55. A(H   7,C   6,H   8)          107.9664         0.284799   
     56. A(C   2,C   6,H   8)          109.4143         0.325724   
     57. A(H   8,C   6,H   9)          108.9201         0.284118   
     58. A(H   7,C   6,H   9)          108.0614         0.284813   
     59. A(C   2,C   6,H   7)          112.9313         0.326568   
     60. A(C   1,N  11,H  31)          127.2122         0.345554   
     61. A(C  12,N  11,H  31)          124.7862         0.357895   
     62. A(C   1,N  11,C  12)          107.9855         0.421539   
     63. A(O  13,C  12,C  14)          124.9755         0.434848   
     64. A(N  11,C  12,C  14)          112.8616         0.400595   
     65. A(N  11,C  12,O  13)          122.1613         0.475849   
     66. A(O  15,C  14,C  16)          111.6615         0.377577   
     67. A(C  12,C  14,C  16)          113.4399         0.360196   
     68. A(C   0,C  14,C  16)          111.1168         0.361858   
     69. A(C  12,C  14,O  15)          111.8252         0.385423   
     70. A(C   0,C  14,O  15)          109.2571         0.387239   
     71. A(C   0,C  14,C  12)           98.8185         0.369276   
     72. A(C  14,O  15,H  32)          107.7111         0.352760   
     73. A(C  14,C  16,C  17)          114.2523         0.361464   
     74. A(H  18,C  16,H  19)          106.6100         0.285294   
     75. A(C  17,C  16,H  19)          108.7476         0.322893   
     76. A(C  14,C  16,H  19)          109.8015         0.315644   
     77. A(C  17,C  16,H  18)          108.9366         0.324978   
     78. A(C  14,C  16,H  18)          108.2151         0.317664   
     79. A(O  20,C  17,C  21)          118.0954         0.446511   
     80. A(C  16,C  17,C  21)          122.5694         0.378275   
     81. A(C  16,C  17,O  20)          119.3232         0.436505   
     82. A(C  22,C  21,O  25)          109.3651         0.446659   
     83. A(C  17,C  21,O  25)          122.8675         0.419359   
     84. A(C  17,C  21,C  22)          127.7673         0.411197   
     85. A(C  23,C  22,H  27)          125.5680         0.358585   
     86. A(C  21,C  22,H  27)          128.5449         0.356413   
     87. A(C  21,C  22,C  23)          105.8872         0.440656   
     88. A(C  24,C  23,H  28)          126.9197         0.357891   
     89. A(C  22,C  23,H  28)          126.8736         0.358326   
     90. A(C  22,C  23,C  24)          106.2067         0.442940   
     91. A(O  25,C  24,H  29)          124.4454         0.363310   
     92. A(C  23,C  24,H  29)          125.9421         0.357896   
     93. A(C  23,C  24,O  25)          109.6124         0.449483   
     94. A(C  21,O  25,C  24)          108.9285         0.456230   
     95. D(C   2,C   1,C   0,C   5)      0.8891         0.028275   
     96. D(C   2,C   1,C   0,C  14)   -179.6882         0.028275   
     97. D(N  11,C   1,C   0,C   5)   -178.3028         0.028275   
     98. D(N  11,C   1,C   0,C  14)      1.1199         0.028275   
     99. D(C   6,C   2,C   1,C   0)    179.9182         0.023772   
    100. D(C   3,C   2,C   1,C   0)     -0.2693         0.023772   
    101. D(C   6,C   2,C   1,N  11)     -1.0374         0.023772   
    102. D(C   3,C   2,C   1,N  11)    178.7751         0.023772   
    103. D(H  26,C   3,C   2,C   6)     -0.0710         0.023656   
    104. D(C   4,C   3,C   2,C   1)     -0.3720         0.023656   
    105. D(H  26,C   3,C   2,C   1)   -179.8915         0.023656   
    106. D(C   4,C   3,C   2,C   6)    179.4486         0.023656   
    107. D(C   5,C   4,C   3,H  26)    179.9258         0.024056   
    108. D(C   5,C   4,C   3,C   2)      0.4013         0.024056   
    109. D(H  30,C   4,C   3,C   2)   -179.3766         0.024056   
    110. D(H  30,C   4,C   3,H  26)      0.1478         0.024056   
    111. D(Cl 10,C   5,C   4,H  30)      0.8051         0.024432   
    112. D(C   0,C   5,C   4,C   3)      0.2068         0.024432   
    113. D(Cl 10,C   5,C   0,C  14)     -0.9870         0.024096   
    114. D(C   4,C   5,C   0,C  14)    179.8634         0.024096   
    115. D(C   0,C   5,C   4,H  30)    179.9835         0.024432   
    116. D(Cl 10,C   5,C   4,C   3)   -178.9716         0.024432   
    117. D(Cl 10,C   5,C   0,C   1)    178.3074         0.024096   
    118. D(C   4,C   5,C   0,C   1)     -0.8422         0.024096   
    119. D(H   8,C   6,C   2,C   3)     59.6758         0.012650   
    120. D(H   9,C   6,C   2,C   3)    -59.6108         0.012650   
    121. D(H   8,C   6,C   2,C   1)   -120.5143         0.012650   
    122. D(H   9,C   6,C   2,C   1)    120.1991         0.012650   
    123. D(H   7,C   6,C   2,C   3)    179.9554         0.012650   
    124. D(H   7,C   6,C   2,C   1)     -0.2347         0.012650   
    125. D(C  12,N  11,C   1,C   0)      0.1337         0.022677   
    126. D(H  31,N  11,C   1,C   2)     -0.4155         0.022677   
    127. D(H  31,N  11,C   1,C   0)    178.7172         0.022677   
    128. D(C  12,N  11,C   1,C   2)   -178.9990         0.022677   
    129. D(C  14,C  12,N  11,H  31)   -179.9819         0.035343   
    130. D(C  14,C  12,N  11,C   1)     -1.3554         0.035343   
    131. D(O  13,C  12,N  11,H  31)     -0.4353         0.035343   
    132. D(O  13,C  12,N  11,C   1)    178.1912         0.035343   
    133. D(C  16,C  14,C  12,O  13)     64.6568         0.011118   
    134. D(C  16,C  14,C  12,N  11)   -115.8116         0.011118   
    135. D(O  15,C  14,C  12,O  13)    -62.7177         0.011118   
    136. D(C   0,C  14,C  12,O  13)   -177.6567         0.011118   
    137. D(C   0,C  14,C  12,N  11)      1.8749         0.011118   
    138. D(C  16,C  14,C   0,C   5)    -62.9279         0.011702   
    139. D(C  16,C  14,C   0,C   1)    117.7174         0.011702   
    140. D(O  15,C  14,C  12,N  11)    116.8139         0.011118   
    141. D(O  15,C  14,C   0,C   5)     60.7186         0.011702   
    142. D(O  15,C  14,C   0,C   1)   -118.6361         0.011702   
    143. D(C  12,C  14,C   0,C   5)    177.6370         0.011702   
    144. D(C  12,C  14,C   0,C   1)     -1.7177         0.011702   
    145. D(H  32,O  15,C  14,C  16)    -72.4172         0.022071   
    146. D(H  32,O  15,C  14,C  12)     55.9076         0.022071   
    147. D(H  32,O  15,C  14,C   0)    164.2587         0.022071   
    148. D(H  19,C  16,C  14,O  15)    179.9411         0.009521   
    149. D(H  19,C  16,C  14,C  12)     52.4813         0.009521   
    150. D(H  19,C  16,C  14,C   0)    -57.7962         0.009521   
    151. D(H  18,C  16,C  14,O  15)    -64.0614         0.009521   
    152. D(H  18,C  16,C  14,C  12)    168.4788         0.009521   
    153. D(H  18,C  16,C  14,C   0)     58.2013         0.009521   
    154. D(C  17,C  16,C  14,O  15)     57.4700         0.009521   
    155. D(C  17,C  16,C  14,C  12)    -69.9898         0.009521   
    156. D(C  17,C  16,C  14,C   0)    179.7328         0.009521   
    157. D(O  20,C  17,C  16,C  14)     64.2347         0.011561   
    158. D(C  21,C  17,C  16,H  19)    119.9036         0.011561   
    159. D(C  21,C  17,C  16,H  18)      4.0806         0.011561   
    160. D(C  21,C  17,C  16,C  14)   -117.0525         0.011561   
    161. D(O  20,C  17,C  16,H  19)    -58.8092         0.011561   
    162. D(O  20,C  17,C  16,H  18)   -174.6323         0.011561   
    163. D(O  25,C  21,C  17,O  20)     -0.4370         0.013631   
    164. D(O  25,C  21,C  17,C  16)   -179.1649         0.013631   
    165. D(C  22,C  21,C  17,O  20)    179.6994         0.013631   
    166. D(C  22,C  21,C  17,C  16)      0.9715         0.013631   
    167. D(H  27,C  22,C  21,O  25)   -179.9046         0.027987   
    168. D(H  27,C  22,C  21,C  17)     -0.0260         0.027987   
    169. D(C  23,C  22,C  21,O  25)      0.0677         0.027987   
    170. D(C  23,C  22,C  21,C  17)    179.9463         0.027987   
    171. D(H  28,C  23,C  22,H  27)     -0.0537         0.030210   
    172. D(H  28,C  23,C  22,C  21)    179.9729         0.030210   
    173. D(C  24,C  23,C  22,H  27)    179.9199         0.030210   
    174. D(C  24,C  23,C  22,C  21)     -0.0535         0.030210   
    175. D(H  29,C  24,C  23,H  28)      0.0063         0.029751   
    176. D(H  29,C  24,C  23,C  22)   -179.9673         0.029751   
    177. D(O  25,C  24,C  23,H  28)    179.9961         0.029751   
    178. D(O  25,C  24,C  23,C  22)      0.0225         0.029751   
    179. D(C  21,O  25,C  24,H  29)   -179.9899         0.041486   
    180. D(C  21,O  25,C  24,C  23)      0.0201         0.041486   
    181. D(C  24,O  25,C  21,C  22)     -0.0551         0.040926   
    182. D(C  24,O  25,C  21,C  17)   -179.9408         0.040926   
    -----------------------------------------------------------------

Number of atoms                         .... 33
Number of degrees of freedom            .... 182

         *************************************************************
         *                GEOMETRY OPTIMIZATION CYCLE   1            *
         *************************************************************
---------------------------------
CARTESIAN COORDINATES (ANGSTROEM)
---------------------------------
  C      0.149000    1.247800    0.362900
  C     -0.647600    0.164100    0.035400
  C     -2.045900    0.276200   -0.068000
  C     -2.619900    1.536900    0.179900
  C     -1.817300    2.637100    0.525700
  C     -0.424000    2.503800    0.623100
  C     -2.940800   -0.877300   -0.422800
  H     -2.384000   -1.817100   -0.596800
  H     -3.503900   -0.636300   -1.349000
  H     -3.662900   -1.052700    0.402200
  Cl     0.537700    3.900300    1.085200
  N      0.135000   -0.986300   -0.142200
  C      1.421200   -0.651000    0.070800
  O      2.324200   -1.470500    0.014700
  C      1.601900    0.824800    0.390600
  O      2.117200    1.020100    1.684300
  C      2.428400    1.591700   -0.677500
  C      3.898600    1.226300   -0.707200
  H      2.332200    2.670600   -0.477900
  H      1.995800    1.415300   -1.686700
  O      4.226300    0.090900   -1.012600
  C      4.969400    2.204000   -0.405400
  C      4.827000    3.534700   -0.046500
  C      6.103900    4.016500    0.127800
  C      6.951600    2.961600   -0.130900
  O      6.248100    1.897300   -0.445000
  H     -3.693000    1.668200    0.113200
  H      3.917500    4.104600    0.079300
  H      6.385300    5.021800    0.411500
  H      8.032100    2.989600   -0.086300
  H     -2.283600    3.594300    0.721500
  H     -0.194600   -1.934200   -0.371400
  H      2.966200    0.510300    1.751300

----------------------------
CARTESIAN COORDINATES (A.U.)
----------------------------
  NO LB      ZA    FRAG     MASS         X           Y           Z
   0 C     6.0000    0    12.011    0.281569    2.358000    0.685782
   1 C     6.0000    0    12.011   -1.223787    0.310104    0.066896
   2 C     6.0000    0    12.011   -3.866191    0.521942   -0.128501
   3 C     6.0000    0    12.011   -4.950893    2.904320    0.339962
   4 C     6.0000    0    12.011   -3.434199    4.983397    0.993429
   5 C     6.0000    0    12.011   -0.801244    4.731496    1.177488
   6 C     6.0000    0    12.011   -5.557307   -1.657857   -0.798976
   7 H     1.0000    0     1.008   -4.505107   -3.433821   -1.127789
   8 H     1.0000    0     1.008   -6.621411   -1.202433   -2.549241
   9 H     1.0000    0     1.008   -6.921878   -1.989315    0.760048
  10 Cl   17.0000    0    35.453    1.016106    7.370499    2.050731
  11 N     7.0000    0    14.007    0.255113   -1.863837   -0.268719
  12 C     6.0000    0    12.011    2.685679   -1.230212    0.133793
  13 O     8.0000    0    15.999    4.392101   -2.778842    0.027779
  14 C     6.0000    0    12.011    3.027152    1.558646    0.738127
  15 O     8.0000    0    15.999    4.000928    1.927710    3.182866
  16 C     6.0000    0    12.011    4.589011    3.007877   -1.280289
  17 C     6.0000    0    12.011    7.367286    2.317371   -1.336414
  18 H     1.0000    0     1.008    4.407219    5.046703   -0.903100
  19 H     1.0000    0     1.008    3.771515    2.674529   -3.187401
  20 O     8.0000    0    15.999    7.986550    0.171776   -1.913537
  21 C     6.0000    0    12.011    9.390805    4.164956   -0.766095
  22 C     6.0000    0    12.011    9.121708    6.679615   -0.087872
  23 C     6.0000    0    12.011   11.534699    7.590085    0.241507
  24 C     6.0000    0    12.011   13.136620    5.596613   -0.247365
  25 O     8.0000    0    15.999   11.807198    3.585377   -0.840928
  26 H     1.0000    0     1.008   -6.978759    3.152441    0.213917
  27 H     1.0000    0     1.008    7.403002    7.756570    0.149855
  28 H     1.0000    0     1.008   12.066468    9.489827    0.777622
  29 H     1.0000    0     1.008   15.178469    5.649525   -0.163083
  30 H     1.0000    0     1.008   -4.315379    6.792243    1.363437
  31 H     1.0000    0     1.008   -0.367741   -3.655108   -0.701844
  32 H     1.0000    0     1.008    5.605306    0.964327    3.309477

--------------------------------
INTERNAL COORDINATES (ANGSTROEM)
--------------------------------
 C      0   0   0     0.000000000000     0.00000000     0.00000000
 C      1   0   0     1.384280860230     0.00000000     0.00000000
 C      2   1   0     1.406591930874   121.80766046     0.00000000
 C      3   2   1     1.407229512198   117.64144786   359.73072025
 C      4   3   2     1.405056739068   120.78729268   359.62804899
 C      5   4   3     1.403046877335   120.66021444     0.40128886
 C      3   2   1     1.502428467515   123.25024305   179.91821676
 H      7   3   2     1.106131221872   112.93128020   359.76531043
 H      7   3   2     1.110409406480   109.41429113   239.48566790
 H      7   3   2     1.110323633001   109.46249882   120.19910523
 Cl     6   5   4     1.757445745962   119.08926345   181.02838099
 N      2   1   3     1.402649164973   110.54567203   180.80811903
 C     12   2   1     1.346144691332   107.98551437     0.13367936
 O     13  12   2     1.220711456488   122.16126523   178.19117214
 C      1   2   3     1.513477684011   109.75246533   180.31182103
 O     15   1   2     1.406177751922   109.25710588   241.36392067
 C     15   1   2     1.553085789646   111.11678595   117.71741289
 C     17  15   1     1.515218561792   114.25233790   179.73275367
 H     17  15   1     1.101417182543   108.21508014    58.20134730
 H     17  15   1     1.112090086279   109.80151759   302.20382085
 O     18  17  15     1.220569379429   119.32315766    64.23465540
 C     18  17  15     1.481078380775   122.56935550   242.94750785
 C     22  18  17     1.385586323547   127.76732130     0.97153239
 C     23  22  18     1.375858037735   105.88716621   179.94628185
 C     24  23  22     1.377800780229   106.20673881   359.94653578
 O     25  24  23     1.313889474043   109.61243850     0.00000000
 H      4   3   2     1.083158432548   120.12282949   180.10848626
 H     23  22  18     1.080648832878   128.54485574   359.97399189
 H     24  23  22     1.081803928630   126.87359956   179.97290825
 H     25  24  23     1.081782515111   125.94214693   180.03271144
 H      5   4   3     1.082591876009   119.39358071   180.62336405
 H     12   2   1     1.029409155778   127.21218254   178.71720458
 H     16  15   1     0.992565383237   107.71110118   164.25874874

---------------------------
INTERNAL COORDINATES (A.U.)
---------------------------
 C      0   0   0     0.000000000000     0.00000000     0.00000000
 C      1   0   0     2.615911718264     0.00000000     0.00000000
 C      2   1   0     2.658073531535   121.80766046     0.00000000
 C      3   2   1     2.659278385625   117.64144786   359.73072025
 C      4   3   2     2.655172439459   120.78729268   359.62804899
 C      5   4   3     2.651374351217   120.66021444     0.40128886
 C      3   2   1     2.839178339411   123.25024305   179.91821676
 H      7   3   2     2.090285077518   112.93128020   359.76531043
 H      7   3   2     2.098369674778   109.41429113   239.48566790
 H      7   3   2     2.098207586392   109.46249882   120.19910523
 Cl     6   5   4     3.321091155093   119.08926345   181.02838099
 N      2   1   3     2.650622783773   110.54567203   180.80811903
 C     12   2   1     2.543844803249   107.98551437     0.13367936
 O     13  12   2     2.306810341302   122.16126523   178.19117214
 C      1   2   3     2.860058332583   109.75246533   180.31182103
 O     15   1   2     2.657290846745   109.25710588   241.36392067
 C     15   1   2     2.934906804916   111.11678595   117.71741289
 C     17  15   1     2.863348114822   114.25233790   179.73275367
 H     17  15   1     2.081376834201   108.21508014    58.20134730
 H     17  15   1     2.101545699316   109.80151759   302.20382085
 O     18  17  15     2.306541854571   119.32315766    64.23465540
 C     18  17  15     2.798832522537   122.56935550   242.94750785
 C     22  18  17     2.618378686410   127.76732130     0.97153239
 C     23  22  18     2.599994890473   105.88716621   179.94628185
 C     24  23  22     2.603666141736   106.20673881   359.94653578
 O     25  24  23     2.482891276182   109.61243850     0.00000000
 H      4   3   2     2.046872797163   120.12282949   180.10848626
 H     23  22  18     2.042130341081   128.54485574   359.97399189
 H     24  23  22     2.044313155711   126.87359956   179.97290825
 H     25  24  23     2.044272690024   125.94214693   180.03271144
 H      5   4   3     2.045802160464   119.39358071   180.62336405
 H     12   2   1     1.945301384172   127.21218254   178.71720458
 H     16  15   1     1.875676744328   107.71110118   164.25874874

---------------------
BASIS SET INFORMATION
---------------------
There are 5 groups of distinct atoms

 Group   1 Type C   : 7s4p1d contracted to 3s2p1d pattern {511/31/1}
 Group   2 Type H   : 4s1p contracted to 2s1p pattern {31/1}
 Group   3 Type Cl  : 10s7p1d contracted to 4s3p1d pattern {5311/511/1}
 Group   4 Type N   : 7s4p1d contracted to 3s2p1d pattern {511/31/1}
 Group   5 Type O   : 7s4p1d contracted to 3s2p1d pattern {511/31/1}

Atom   0C    basis set group =>   1
Atom   1C    basis set group =>   1
Atom   2C    basis set group =>   1
Atom   3C    basis set group =>   1
Atom   4C    basis set group =>   1
Atom   5C    basis set group =>   1
Atom   6C    basis set group =>   1
Atom   7H    basis set group =>   2
Atom   8H    basis set group =>   2
Atom   9H    basis set group =>   2
Atom  10Cl   basis set group =>   3
Atom  11N    basis set group =>   4
Atom  12C    basis set group =>   1
Atom  13O    basis set group =>   5
Atom  14C    basis set group =>   1
Atom  15O    basis set group =>   5
Atom  16C    basis set group =>   1
Atom  17C    basis set group =>   1
Atom  18H    basis set group =>   2
Atom  19H    basis set group =>   2
Atom  20O    basis set group =>   5
Atom  21C    basis set group =>   1
Atom  22C    basis set group =>   1
Atom  23C    basis set group =>   1
Atom  24C    basis set group =>   1
Atom  25O    basis set group =>   5
Atom  26H    basis set group =>   2
Atom  27H    basis set group =>   2
Atom  28H    basis set group =>   2
Atom  29H    basis set group =>   2
Atom  30H    basis set group =>   2
Atom  31H    basis set group =>   2
Atom  32H    basis set group =>   2
---------------------------------
AUXILIARY/J BASIS SET INFORMATION
---------------------------------
There are 5 groups of distinct atoms

 Group   1 Type C   : 12s5p4d2f1g contracted to 6s4p3d1f1g pattern {711111/2111/211/2/1}
 Group   2 Type H   : 5s2p1d contracted to 3s1p1d pattern {311/2/1}
 Group   3 Type Cl  : 14s5p5d2f1g contracted to 8s4p3d1f1g pattern {71111111/2111/311/2/1}
 Group   4 Type N   : 12s5p4d2f1g contracted to 6s4p3d1f1g pattern {711111/2111/211/2/1}
 Group   5 Type O   : 12s5p4d2f1g contracted to 6s4p3d1f1g pattern {711111/2111/211/2/1}

Atom   0C    basis set group =>   1
Atom   1C    basis set group =>   1
Atom   2C    basis set group =>   1
Atom   3C    basis set group =>   1
Atom   4C    basis set group =>   1
Atom   5C    basis set group =>   1
Atom   6C    basis set group =>   1
Atom   7H    basis set group =>   2
Atom   8H    basis set group =>   2
Atom   9H    basis set group =>   2
Atom  10Cl   basis set group =>   3
Atom  11N    basis set group =>   4
Atom  12C    basis set group =>   1
Atom  13O    basis set group =>   5
Atom  14C    basis set group =>   1
Atom  15O    basis set group =>   5
Atom  16C    basis set group =>   1
Atom  17C    basis set group =>   1
Atom  18H    basis set group =>   2
Atom  19H    basis set group =>   2
Atom  20O    basis set group =>   5
Atom  21C    basis set group =>   1
Atom  22C    basis set group =>   1
Atom  23C    basis set group =>   1
Atom  24C    basis set group =>   1
Atom  25O    basis set group =>   5
Atom  26H    basis set group =>   2
Atom  27H    basis set group =>   2
Atom  28H    basis set group =>   2
Atom  29H    basis set group =>   2
Atom  30H    basis set group =>   2
Atom  31H    basis set group =>   2
Atom  32H    basis set group =>   2
------------------------------------------------------------------------------
                           ORCA GTO INTEGRAL CALCULATION
                           -- RI-GTO INTEGRALS CHOSEN --
------------------------------------------------------------------------------
------------------------------------------------------------------------------
                   ___                                                        
                  /   \      - P O W E R E D   B Y -                         
                 /     \                                                     
                 |  |  |   _    _      __       _____    __    __             
                 |  |  |  | |  | |    /  \     |  _  \  |  |  /  |          
                  \  \/   | |  | |   /    \    | | | |  |  | /  /          
                 / \  \   | |__| |  /  /\  \   | |_| |  |  |/  /          
                |  |  |   |  __  | /  /__\  \  |    /   |      \           
                |  |  |   | |  | | |   __   |  |    \   |  |\   \          
                \     /   | |  | | |  |  |  |  | |\  \  |  | \   \       
                 \___/    |_|  |_| |__|  |__|  |_| \__\ |__|  \__/        
                                                                              
                      - O R C A' S   B I G   F R I E N D -                    
                                      &                                       
                       - I N T E G R A L  F E E D E R -                       
                                                                              
 v1 FN, 2020, v2 2021                                                         
------------------------------------------------------------------------------


Reading SHARK input file input.SHARKINP.tmp ... ok
----------------------
SHARK INTEGRAL PACKAGE
----------------------

Number of atoms                             ...     33
Number of basis functions                   ...    358
Number of shells                            ...    164
Maximum angular momentum                    ...      2
Integral batch strategy                     ... SHARK/LIBINT Hybrid
RI-J (if used) integral strategy            ... SPLIT-RIJ (Revised 2003 algorithm where possible)
Printlevel                                  ...      1
Contraction scheme used                     ... SEGMENTED contraction
Coulomb Range Separation                    ... NOT USED
Exchange Range Separation                   ... NOT USED
Finite Nucleus Model                        ... NOT USED
Auxiliary Coulomb fitting basis             ... AVAILABLE
   # of basis functions in Aux-J            ...   1163
   # of shells in Aux-J                     ...    377
   Maximum angular momentum in Aux-J        ...      4
Auxiliary J/K fitting basis                 ... NOT available
Auxiliary Correlation fitting basis         ... NOT available
Auxiliary 'external' fitting basis          ... NOT available
Integral threshold                          ...     2.500000e-11
Primitive cut-off                           ...     2.500000e-12
Primitive pair pre-selection threshold      ...     2.500000e-12

Calculating pre-screening integrals         ... done (  0.0 sec) Dimension = 164
Organizing shell pair data                  ... done (  0.0 sec)
Shell pair information
Total number of shell pairs                 ...     13530
Shell pairs after pre-screening             ...      9902
Total number of primitive shell pairs       ...     51040
Primitive shell pairs kept                  ...     23926
          la=0 lb=0:   2872 shell pairs
          la=1 lb=0:   3635 shell pairs
          la=1 lb=1:   1189 shell pairs
          la=2 lb=0:   1249 shell pairs
          la=2 lb=1:    813 shell pairs
          la=2 lb=2:    144 shell pairs

Calculating one electron integrals          ... done (  0.0 sec)
Calculating RI/J V-Matrix + Cholesky decomp.... done (  0.0 sec)
Calculating Nuclear repulsion               ... done (  0.0 sec) ENN=   1787.776786924988 Eh

SHARK setup successfully completed in   0.2 seconds

Maximum memory used throughout the entire GTOINT-calculation: 69.4 MB
-------------------------------------------------------------------------------
                                 ORCA SCF
-------------------------------------------------------------------------------

------------
SCF SETTINGS
------------
Hamiltonian:
 Density Functional     Method          .... DFT(GTOs)
 Exchange Functional    Exchange        .... B88
   X-Alpha parameter    XAlpha          ....  0.666667
   Becke's b parameter  XBeta           ....  0.004200
 Correlation Functional Correlation     .... P86
 LDA part of GGA corr.  LDAOpt          .... PW91-LDA
 Gradients option       PostSCFGGA      .... off
   Density functional embedding theory  .... OFF
   NL short-range parameter             ....  4.400000
 RI-approximation to the Coulomb term is turned on
   Number of AuxJ basis functions       .... 1163


General Settings:
 Integral files         IntName         .... input
 Hartree-Fock type      HFTyp           .... RHF
 Total Charge           Charge          ....    0
 Multiplicity           Mult            ....    1
 Number of Electrons    NEL             ....  158
 Basis Dimension        Dim             ....  358
 Nuclear Repulsion      ENuc            ....   1787.7767869250 Eh

Convergence Acceleration:
 DIIS                   CNVDIIS         .... on
   Start iteration      DIISMaxIt       ....    12
   Startup error        DIISStart       ....  0.200000
   # of expansion vecs  DIISMaxEq       ....     5
   Bias factor          DIISBfac        ....   1.050
   Max. coefficient     DIISMaxC        ....  10.000
 Trust-Rad. Augm. Hess. CNVTRAH         .... auto
   Auto Start mean grad. ratio tolernc. ....  1.125000
   Auto Start start iteration           ....    20
   Auto Start num. interpolation iter.  ....    10
   Max. Number of Micro iterations      ....    16
   Max. Number of Macro iterations      .... Maxiter - #DIIS iter
   Number of Davidson start vectors     ....     2
   Converg. threshold I  (grad. norm)   ....   1.000e-05
   Converg. threshold II (energy diff.) ....   1.000e-08
   Grad. Scal. Fac. for Micro threshold ....   0.100
   Minimum threshold for Micro iter.    ....   0.010
   NR start threshold (gradient norm)   ....   0.001
   Initial trust radius                 ....   0.400
   Minimum AH scaling param. (alpha)    ....   1.000
   Maximum AH scaling param. (alpha)    .... 1000.000
   Orbital update algorithm             .... Taylor
   White noise on init. David. guess    .... on
   Maximum white noise                  ....   0.010
   Quad. conv. algorithm                .... NR
 SOSCF                  CNVSOSCF        .... on
   Start iteration      SOSCFMaxIt      ....   150
   Startup grad/error   SOSCFStart      ....  0.003300
 Level Shifting         CNVShift        .... on
   Level shift para.    LevelShift      ....    0.2500
   Turn off err/grad.   ShiftErr        ....    0.0010
 Zerner damping         CNVZerner       .... off
 Static damping         CNVDamp         .... on
   Fraction old density DampFac         ....    0.7000
   Max. Damping (<1)    DampMax         ....    0.9800
   Min. Damping (>=0)   DampMin         ....    0.0000
   Turn off err/grad.   DampErr         ....    0.1000
 Fernandez-Rico         CNVRico         .... off

SCF Procedure:
 Maximum # iterations   MaxIter         ....   125
 SCF integral mode      SCFMode         .... Direct
   Integral package                     .... SHARK and LIBINT hybrid scheme
 Reset frequency        DirectResetFreq ....    20
 Integral Threshold     Thresh          ....  2.500e-11 Eh
 Primitive CutOff       TCut            ....  2.500e-12 Eh

Convergence Tolerance:
 Convergence Check Mode ConvCheckMode   .... Total+1el-Energy
 Convergence forced     ConvForced      .... 0
 Energy Change          TolE            ....  1.000e-08 Eh
 1-El. energy change                    ....  1.000e-05 Eh
 Orbital Gradient       TolG            ....  1.000e-05
 Orbital Rotation angle TolX            ....  1.000e-05
 DIIS Error             TolErr          ....  5.000e-07


Diagonalization of the overlap matrix:
Smallest eigenvalue                        ... 1.734e-04
Time for diagonalization                   ...    0.010 sec
Threshold for overlap eigenvalues          ... 1.000e-08
Number of eigenvalues below threshold      ... 0
Time for construction of square roots      ...    0.002 sec
Total time needed                          ...    0.012 sec

Time for model grid setup =    0.376 sec

------------------------------
INITIAL GUESS: MODEL POTENTIAL
------------------------------
Loading Hartree-Fock densities                     ... done
Calculating cut-offs                               ... done
Initializing the effective Hamiltonian             ... done
Setting up the integral package (SHARK)            ... done
Starting the Coulomb interaction                   ... done (   0.4 sec)
Reading the grid                                   ... done
Mapping shells                                     ... done
Starting the XC term evaluation                    ... done (   0.4 sec)
  promolecular density results
     # of electrons  =    157.990590496
     EX              =   -147.680471232
     EC              =     -5.998725894
     EX+EC           =   -153.679197126
Transforming the Hamiltonian                       ... done (   0.0 sec)
Diagonalizing the Hamiltonian                      ... done (   0.0 sec)
Back transforming the eigenvectors                 ... done (   0.0 sec)
Now organizing SCF variables                       ... done
                      ------------------
                      INITIAL GUESS DONE (   1.1 sec)
                      ------------------
-------------------
DFT GRID GENERATION
-------------------

General Integration Accuracy     IntAcc      ... 4.388
Radial Grid Type                 RadialGrid  ... OptM3 with GC (2021)
Angular Grid (max. ang.)         AngularGrid ... 4 (Lebedev-302)
Angular grid pruning method      GridPruning ... 4 (adaptive)
Weight generation scheme         WeightScheme... Becke
Basis function cutoff            BFCut       ... 1.0000e-11
Integration weight cutoff        WCut        ... 1.0000e-14
Angular grids for H and He will be reduced by one unit
Partially contracted basis set               ... off
Rotationally invariant grid construction     ... off

Total number of grid points                  ...   165214
Total number of batches                      ...     2599
Average number of points per batch           ...       63
Average number of grid points per atom       ...     5006
Time for grid setup =    1.371 sec

--------------
SCF ITERATIONS
--------------
ITER       Energy         Delta-E        Max-DP      RMS-DP      [F,P]     Damp
               ***  Starting incremental Fock matrix formation  ***
  0  -1393.4304297036   0.000000000000 0.26162666  0.00273376  0.2591421 0.7000
  1  -1393.6603049571  -0.229875253490 0.12775579  0.00152028  0.0752808 0.7000
                               ***Turning on DIIS***
  2  -1393.7257919693  -0.065487012276 0.06694105  0.00177254  0.0347215 0.0000
  3  -1393.8549758049  -0.129183835531 0.08865159  0.00107575  0.0501384 0.0000
  4  -1393.8775103203  -0.022534515423 0.02281634  0.00038117  0.0348462 0.0000
  5  -1393.8824195352  -0.004909214894 0.00752909  0.00011228  0.0045133 0.0000
                      *** Initiating the SOSCF procedure ***
                           *** Shutting down DIIS ***
                      *** Re-Reading the Fockian *** 
                      *** Removing any level shift *** 
ITER      Energy       Delta-E        Grad      Rot      Max-DP    RMS-DP
  6  -1393.88257465  -0.0001551154  0.000414  0.000414  0.004741  0.000043
               *** Restarting incremental Fock matrix formation ***
  7  -1393.88260297  -0.0000283186  0.000268  0.001084  0.002529  0.000033
  8  -1393.88259170   0.0000112731  0.000727  0.000908  0.001246  0.000019
  9  -1393.88260661  -0.0000149094  0.000059  0.000461  0.000513  0.000011
 10  -1393.88260541   0.0000011960  0.000156  0.000288  0.000511  0.000007
 11  -1393.88260682  -0.0000014055  0.000037  0.000147  0.000212  0.000005
 12  -1393.88260668   0.0000001326  0.000056  0.000090  0.000146  0.000003
 13  -1393.88260688  -0.0000001972  0.000007  0.000041  0.000049  0.000001
 14  -1393.88260687   0.0000000097  0.000014  0.000032  0.000037  0.000001
                  ***Gradient check signals convergence***
              ***Rediagonalizing the Fockian in SOSCF/NRSCF***

               *****************************************************
               *                     SUCCESS                       *
               *           SCF CONVERGED AFTER  15 CYCLES          *
               *****************************************************


----------------
TOTAL SCF ENERGY
----------------

Total Energy       :        -1393.88260688 Eh          -37929.47403 eV

Components:
Nuclear Repulsion  :         1787.77678692 Eh           48647.87958 eV
Electronic Energy  :        -3181.65939381 Eh          -86577.35361 eV
One Electron Energy:        -5460.61073550 Eh         -148590.77232 eV
Two Electron Energy:         2278.95134169 Eh           62013.41871 eV

Virial components:
Potential Energy   :        -2777.68918865 Eh          -75584.76548 eV
Kinetic Energy     :         1383.80658177 Eh           37655.29145 eV
Virial Ratio       :            2.00728138


DFT components:
N(Alpha)           :       79.000065594059 electrons
N(Beta)            :       79.000065594059 electrons
N(Total)           :      158.000131188119 electrons
E(X)               :     -149.420311536466 Eh       
E(C)               :       -6.004450112747 Eh       
E(XC)              :     -155.424761649213 Eh       
DFET-embed. en.    :        0.000000000000 Eh       

---------------
SCF CONVERGENCE
---------------

  Last Energy change         ...   -1.1885e-08  Tolerance :   1.0000e-08
  Last MAX-Density change    ...    1.4752e-05  Tolerance :   1.0000e-07
  Last RMS-Density change    ...    3.3006e-07  Tolerance :   5.0000e-09
  Last Orbital Gradient      ...    2.0695e-06  Tolerance :   1.0000e-05
  Last Orbital Rotation      ...    1.0743e-05  Tolerance :   1.0000e-05

             **** THE GBW FILE WAS UPDATED (input.gbw) ****
             **** DENSITY input.scfp WAS UPDATED ****
             **** ENERGY FILE WAS UPDATED (input.en.tmp) ****
             **** THE GBW FILE WAS UPDATED (input.gbw) ****
             **** DENSITY input.scfp WAS UPDATED ****
----------------
ORBITAL ENERGIES
----------------

  NO   OCC          E(Eh)            E(eV) 
   0   2.0000    -100.710153     -2740.4626 
   1   2.0000     -18.868777      -513.4455 
   2   2.0000     -18.790318      -511.3106 
   3   2.0000     -18.750792      -510.2350 
   4   2.0000     -18.747501      -510.1454 
   5   2.0000     -14.066058      -382.7569 
   6   2.0000     -10.004205      -272.2283 
   7   2.0000      -9.991289      -271.8768 
   8   2.0000      -9.990402      -271.8527 
   9   2.0000      -9.981171      -271.6015 
  10   2.0000      -9.977191      -271.4932 
  11   2.0000      -9.971086      -271.3270 
  12   2.0000      -9.969438      -271.2822 
  13   2.0000      -9.939224      -270.4600 
  14   2.0000      -9.935610      -270.3617 
  15   2.0000      -9.933388      -270.3012 
  16   2.0000      -9.932560      -270.2787 
  17   2.0000      -9.928840      -270.1775 
  18   2.0000      -9.927284      -270.1351 
  19   2.0000      -9.923397      -270.0294 
  20   2.0000      -9.919773      -269.9307 
  21   2.0000      -9.194513      -250.1954 
  22   2.0000      -7.025525      -191.1743 
  23   2.0000      -7.014300      -190.8688 
  24   2.0000      -7.013598      -190.8497 
  25   2.0000      -1.064330       -28.9619 
  26   2.0000      -0.963731       -26.2244 
  27   2.0000      -0.932679       -25.3795 
  28   2.0000      -0.929500       -25.2930 
  29   2.0000      -0.882503       -24.0141 
  30   2.0000      -0.812540       -22.1103 
  31   2.0000      -0.767145       -20.8751 
  32   2.0000      -0.745197       -20.2778 
  33   2.0000      -0.732257       -19.9257 
  34   2.0000      -0.709441       -19.3049 
  35   2.0000      -0.694462       -18.8973 
  36   2.0000      -0.675211       -18.3734 
  37   2.0000      -0.636631       -17.3236 
  38   2.0000      -0.622405       -16.9365 
  39   2.0000      -0.574825       -15.6418 
  40   2.0000      -0.567690       -15.4476 
  41   2.0000      -0.560473       -15.2512 
  42   2.0000      -0.543246       -14.7825 
  43   2.0000      -0.527571       -14.3559 
  44   2.0000      -0.511932       -13.9304 
  45   2.0000      -0.484234       -13.1767 
  46   2.0000      -0.481654       -13.1065 
  47   2.0000      -0.469805       -12.7841 
  48   2.0000      -0.445690       -12.1278 
  49   2.0000      -0.444632       -12.0991 
  50   2.0000      -0.437661       -11.9094 
  51   2.0000      -0.429883       -11.6977 
  52   2.0000      -0.417845       -11.3701 
  53   2.0000      -0.406191       -11.0530 
  54   2.0000      -0.399448       -10.8695 
  55   2.0000      -0.394783       -10.7426 
  56   2.0000      -0.387189       -10.5359 
  57   2.0000      -0.385437       -10.4883 
  58   2.0000      -0.375747       -10.2246 
  59   2.0000      -0.370870       -10.0919 
  60   2.0000      -0.365332        -9.9412 
  61   2.0000      -0.356636        -9.7046 
  62   2.0000      -0.355247        -9.6667 
  63   2.0000      -0.339284        -9.2324 
  64   2.0000      -0.335758        -9.1364 
  65   2.0000      -0.333400        -9.0723 
  66   2.0000      -0.328904        -8.9499 
  67   2.0000      -0.324965        -8.8427 
  68   2.0000      -0.309402        -8.4192 
  69   2.0000      -0.301668        -8.2088 
  70   2.0000      -0.275274        -7.4906 
  71   2.0000      -0.273514        -7.4427 
  72   2.0000      -0.271828        -7.3968 
  73   2.0000      -0.247786        -6.7426 
  74   2.0000      -0.228157        -6.2085 
  75   2.0000      -0.220458        -5.9990 
  76   2.0000      -0.212008        -5.7690 
  77   2.0000      -0.206198        -5.6109 
  78   2.0000      -0.185588        -5.0501 
  79   0.0000      -0.087049        -2.3687 
  80   0.0000      -0.068513        -1.8643 
  81   0.0000      -0.049069        -1.3352 
  82   0.0000      -0.013729        -0.3736 
  83   0.0000      -0.006207        -0.1689 
  84   0.0000      -0.001449        -0.0394 
  85   0.0000       0.014487         0.3942 
  86   0.0000       0.035127         0.9558 
  87   0.0000       0.049275         1.3408 
  88   0.0000       0.056173         1.5285 
  89   0.0000       0.060678         1.6511 
  90   0.0000       0.071401         1.9429 
  91   0.0000       0.072591         1.9753 
  92   0.0000       0.076636         2.0854 
  93   0.0000       0.084051         2.2871 
  94   0.0000       0.098254         2.6736 
  95   0.0000       0.108440         2.9508 
  96   0.0000       0.118254         3.2179 
  97   0.0000       0.125470         3.4142 
  98   0.0000       0.129733         3.5302 
  99   0.0000       0.130914         3.5624 
 100   0.0000       0.151191         4.1141 
 101   0.0000       0.155681         4.2363 
 102   0.0000       0.164001         4.4627 
 103   0.0000       0.173919         4.7326 
 104   0.0000       0.184327         5.0158 
 105   0.0000       0.194156         5.2832 
 106   0.0000       0.212921         5.7939 
 107   0.0000       0.216591         5.8937 
 108   0.0000       0.226095         6.1524 
 109   0.0000       0.236000         6.4219 
 110   0.0000       0.251241         6.8366 
 111   0.0000       0.257617         7.0101 
 112   0.0000       0.273778         7.4499 
 113   0.0000       0.279781         7.6132 
 114   0.0000       0.294450         8.0124 
 115   0.0000       0.306137         8.3304 
 116   0.0000       0.310819         8.4578 
 117   0.0000       0.329151         8.9566 
 118   0.0000       0.336673         9.1613 
 119   0.0000       0.345066         9.3897 
 120   0.0000       0.350082         9.5262 
 121   0.0000       0.358872         9.7654 
 122   0.0000       0.371739        10.1155 
 123   0.0000       0.378054        10.2874 
 124   0.0000       0.387427        10.5424 
 125   0.0000       0.393159        10.6984 
 126   0.0000       0.393467        10.7068 
 127   0.0000       0.396918        10.8007 
 128   0.0000       0.411055        11.1854 
 129   0.0000       0.419330        11.4105 
 130   0.0000       0.429266        11.6809 
 131   0.0000       0.433760        11.8032 
 132   0.0000       0.442013        12.0278 
 133   0.0000       0.445845        12.1321 
 134   0.0000       0.469144        12.7660 
 135   0.0000       0.474448        12.9104 
 136   0.0000       0.477799        13.0016 
 137   0.0000       0.488416        13.2905 
 138   0.0000       0.491440        13.3728 
 139   0.0000       0.491760        13.3815 
 140   0.0000       0.494441        13.4544 
 141   0.0000       0.513550        13.9744 
 142   0.0000       0.514358        13.9964 
 143   0.0000       0.525259        14.2930 
 144   0.0000       0.527140        14.3442 
 145   0.0000       0.535025        14.5588 
 146   0.0000       0.546795        14.8791 
 147   0.0000       0.551152        14.9976 
 148   0.0000       0.559304        15.2194 
 149   0.0000       0.569374        15.4935 
 150   0.0000       0.572364        15.5748 
 151   0.0000       0.584836        15.9142 
 152   0.0000       0.589029        16.0283 
 153   0.0000       0.593808        16.1583 
 154   0.0000       0.601838        16.3768 
 155   0.0000       0.603986        16.4353 
 156   0.0000       0.607259        16.5244 
 157   0.0000       0.615653        16.7528 
 158   0.0000       0.617515        16.8034 
 159   0.0000       0.619582        16.8597 
 160   0.0000       0.621764        16.9191 
 161   0.0000       0.633818        17.2471 
 162   0.0000       0.643707        17.5162 
 163   0.0000       0.648962        17.6591 
 164   0.0000       0.651885        17.7387 
 165   0.0000       0.657314        17.8864 
 166   0.0000       0.661569        18.0022 
 167   0.0000       0.668061        18.1789 
 168   0.0000       0.677709        18.4414 
 169   0.0000       0.683524        18.5996 
 170   0.0000       0.689345        18.7580 
 171   0.0000       0.699988        19.0476 
 172   0.0000       0.706148        19.2153 
 173   0.0000       0.720272        19.5996 
 174   0.0000       0.723761        19.6946 
 175   0.0000       0.734141        19.9770 
 176   0.0000       0.747489        20.3402 
 177   0.0000       0.749632        20.3985 
 178   0.0000       0.759021        20.6540 
 179   0.0000       0.765778        20.8379 
 180   0.0000       0.778907        21.1951 
 181   0.0000       0.791516        21.5382 
 182   0.0000       0.798714        21.7341 
 183   0.0000       0.827179        22.5087 
 184   0.0000       0.840123        22.8609 
 185   0.0000       0.854006        23.2387 
 186   0.0000       0.871663        23.7192 
 187   0.0000       0.879817        23.9410 
 188   0.0000       0.903311        24.5803 
 189   0.0000       0.916153        24.9298 
 190   0.0000       0.929173        25.2841 
 191   0.0000       0.933827        25.4107 
 192   0.0000       0.939193        25.5567 
 193   0.0000       0.953862        25.9559 
 194   0.0000       0.972271        26.4569 
 195   0.0000       0.973189        26.4818 
 196   0.0000       0.989353        26.9217 
 197   0.0000       1.007043        27.4030 
 198   0.0000       1.028376        27.9835 
 199   0.0000       1.042693        28.3731 
 200   0.0000       1.053319        28.6623 
 201   0.0000       1.054429        28.6925 
 202   0.0000       1.066880        29.0313 
 203   0.0000       1.086555        29.5667 
 204   0.0000       1.087540        29.5935 
 205   0.0000       1.106517        30.1099 
 206   0.0000       1.127608        30.6838 
 207   0.0000       1.135516        30.8990 
 208   0.0000       1.144536        31.1444 
 209   0.0000       1.168788        31.8043 
 210   0.0000       1.172973        31.9182 
 211   0.0000       1.177368        32.0378 
 212   0.0000       1.190832        32.4042 
 213   0.0000       1.202448        32.7203 
 214   0.0000       1.209676        32.9170 
 215   0.0000       1.225406        33.3450 
 216   0.0000       1.233429        33.5633 
 217   0.0000       1.245824        33.9006 
 218   0.0000       1.275637        34.7118 
 219   0.0000       1.291951        35.1558 
 220   0.0000       1.294679        35.2300 
 221   0.0000       1.324628        36.0450 
 222   0.0000       1.330173        36.1959 
 223   0.0000       1.349437        36.7201 
 224   0.0000       1.368050        37.2265 
 225   0.0000       1.379915        37.5494 
 226   0.0000       1.390996        37.8509 
 227   0.0000       1.400444        38.1080 
 228   0.0000       1.415459        38.5166 
 229   0.0000       1.424896        38.7734 
 230   0.0000       1.435975        39.0749 
 231   0.0000       1.437417        39.1141 
 232   0.0000       1.445990        39.3474 
 233   0.0000       1.457451        39.6593 
 234   0.0000       1.469198        39.9789 
 235   0.0000       1.484424        40.3932 
 236   0.0000       1.522983        41.4425 
 237   0.0000       1.528199        41.5844 
 238   0.0000       1.561153        42.4811 
 239   0.0000       1.581600        43.0375 
 240   0.0000       1.591717        43.3128 
 241   0.0000       1.607754        43.7492 
 242   0.0000       1.615904        43.9710 
 243   0.0000       1.624508        44.2051 
 244   0.0000       1.625964        44.2447 
 245   0.0000       1.635841        44.5135 
 246   0.0000       1.651546        44.9409 
 247   0.0000       1.655536        45.0494 
 248   0.0000       1.660261        45.1780 
 249   0.0000       1.675460        45.5916 
 250   0.0000       1.683444        45.8088 
 251   0.0000       1.688036        45.9338 
 252   0.0000       1.699047        46.2334 
 253   0.0000       1.702549        46.3287 
 254   0.0000       1.725769        46.9606 
 255   0.0000       1.731635        47.1202 
 256   0.0000       1.739391        47.3312 
 257   0.0000       1.745875        47.5077 
 258   0.0000       1.758280        47.8452 
 259   0.0000       1.765225        48.0342 
 260   0.0000       1.779661        48.4270 
 261   0.0000       1.787074        48.6287 
 262   0.0000       1.795258        48.8515 
 263   0.0000       1.819539        49.5122 
 264   0.0000       1.828309        49.7508 
 265   0.0000       1.834527        49.9200 
 266   0.0000       1.846057        50.2338 
 267   0.0000       1.863637        50.7122 
 268   0.0000       1.866132        50.7800 
 269   0.0000       1.871312        50.9210 
 270   0.0000       1.880984        51.1842 
 271   0.0000       1.888057        51.3766 
 272   0.0000       1.899564        51.6898 
 273   0.0000       1.917972        52.1907 
 274   0.0000       1.925799        52.4036 
 275   0.0000       1.940173        52.7948 
 276   0.0000       1.948174        53.0125 
 277   0.0000       1.975019        53.7430 
 278   0.0000       1.980797        53.9002 
 279   0.0000       1.983611        53.9768 
 280   0.0000       2.007638        54.6306 
 281   0.0000       2.014085        54.8060 
 282   0.0000       2.025416        55.1144 
 283   0.0000       2.049394        55.7669 
 284   0.0000       2.060077        56.0575 
 285   0.0000       2.076849        56.5139 
 286   0.0000       2.085703        56.7549 
 287   0.0000       2.105990        57.3069 
 288   0.0000       2.109996        57.4159 
 289   0.0000       2.118113        57.6368 
 290   0.0000       2.141889        58.2838 
 291   0.0000       2.169633        59.0387 
 292   0.0000       2.180171        59.3255 
 293   0.0000       2.183854        59.4257 
 294   0.0000       2.201455        59.9046 
 295   0.0000       2.215389        60.2838 
 296   0.0000       2.235803        60.8393 
 297   0.0000       2.241555        60.9958 
 298   0.0000       2.260359        61.5075 
 299   0.0000       2.262936        61.5776 
 300   0.0000       2.278132        61.9911 
 301   0.0000       2.307342        62.7860 
 302   0.0000       2.324307        63.2476 
 303   0.0000       2.350876        63.9706 
 304   0.0000       2.370394        64.5017 
 305   0.0000       2.374071        64.6018 
 306   0.0000       2.399259        65.2872 
 307   0.0000       2.421752        65.8992 
 308   0.0000       2.444284        66.5124 
 309   0.0000       2.465633        67.0933 
 310   0.0000       2.471306        67.2477 
 311   0.0000       2.491406        67.7946 
 312   0.0000       2.509337        68.2825 
 313   0.0000       2.520957        68.5987 
 314   0.0000       2.545282        69.2606 
 315   0.0000       2.570335        69.9424 
 316   0.0000       2.573207        70.0205 
 317   0.0000       2.603365        70.8412 
 318   0.0000       2.622021        71.3488 
 319   0.0000       2.625175        71.4346 
 320   0.0000       2.627133        71.4879 
 321   0.0000       2.638236        71.7901 
 322   0.0000       2.642985        71.9193 
 323   0.0000       2.667377        72.5830 
 324   0.0000       2.685792        73.0841 
 325   0.0000       2.695751        73.3551 
 326   0.0000       2.706442        73.6460 
 327   0.0000       2.713394        73.8352 
 328   0.0000       2.730930        74.3124 
 329   0.0000       2.802417        76.2577 
 330   0.0000       2.813461        76.5582 
 331   0.0000       2.818434        76.6935 
 332   0.0000       2.823552        76.8328 
 333   0.0000       2.848698        77.5170 
 334   0.0000       2.851208        77.5853 
 335   0.0000       2.876090        78.2624 
 336   0.0000       2.883131        78.4540 
 337   0.0000       2.886520        78.5462 
 338   0.0000       2.917337        79.3848 
 339   0.0000       2.958731        80.5112 
 340   0.0000       2.972174        80.8770 
 341   0.0000       2.997064        81.5543 
 342   0.0000       3.020641        82.1958 
 343   0.0000       3.065225        83.4090 
 344   0.0000       3.074318        83.6564 
 345   0.0000       3.084721        83.9395 
 346   0.0000       3.102682        84.4283 
 347   0.0000       3.253135        88.5223 
 348   0.0000       3.293990        89.6340 
 349   0.0000       3.307609        90.0046 
 350   0.0000       3.369509        91.6890 
 351   0.0000       3.392603        92.3174 
 352   0.0000       3.449773        93.8731 
 353   0.0000       3.480066        94.6974 
 354   0.0000       3.496987        95.1579 
 355   0.0000       3.590850        97.7120 
 356   0.0000       3.609072        98.2078 
 357   0.0000       3.645206        99.1911 

                    ********************************
                    * MULLIKEN POPULATION ANALYSIS *
                    ********************************

-----------------------
MULLIKEN ATOMIC CHARGES
-----------------------
   0 C :    0.040894
   1 C :    0.083740
   2 C :   -0.107171
   3 C :   -0.043488
   4 C :    0.004235
   5 C :    0.000831
   6 C :    0.019581
   7 H :    0.010255
   8 H :    0.055467
   9 H :    0.056318
  10 Cl:   -0.065453
  11 N :   -0.039279
  12 C :    0.073404
  13 O :   -0.149791
  14 C :   -0.088924
  15 O :   -0.249340
  16 C :    0.168655
  17 C :   -0.040432
  18 H :    0.005113
  19 H :    0.036947
  20 O :   -0.141885
  21 C :    0.075662
  22 C :   -0.055830
  23 C :   -0.025128
  24 C :    0.112377
  25 O :   -0.079544
  26 H :   -0.013354
  27 H :    0.009786
  28 H :    0.005202
  29 H :    0.030166
  30 H :   -0.014061
  31 H :    0.135645
  32 H :    0.189403
Sum of atomic charges:   -0.0000000

--------------------------------
MULLIKEN REDUCED ORBITAL CHARGES
--------------------------------
  0 C s       :     3.106719  s :     3.106719
      pz      :     1.025651  p :     2.815038
      px      :     0.934359
      py      :     0.855028
      dz2     :     0.003866  d :     0.037349
      dxz     :     0.004408
      dyz     :     0.006544
      dx2y2   :     0.009549
      dxy     :     0.012982
  1 C s       :     3.035326  s :     3.035326
      pz      :     1.018779  p :     2.823278
      px      :     0.874579
      py      :     0.929920
      dz2     :     0.005067  d :     0.057656
      dxz     :     0.010151
      dyz     :     0.010138
      dx2y2   :     0.014013
      dxy     :     0.018287
  2 C s       :     3.105039  s :     3.105039
      pz      :     1.027860  p :     2.962442
      px      :     1.035084
      py      :     0.899498
      dz2     :     0.003391  d :     0.039690
      dxz     :     0.006728
      dyz     :     0.005801
      dx2y2   :     0.012886
      dxy     :     0.010882
  3 C s       :     3.258138  s :     3.258138
      pz      :     0.986818  p :     2.753182
      px      :     0.808876
      py      :     0.957487
      dz2     :     0.003073  d :     0.032168
      dxz     :     0.002495
      dyz     :     0.006542
      dx2y2   :     0.011226
      dxy     :     0.008832
  4 C s       :     3.262345  s :     3.262345
      pz      :     1.003792  p :     2.702050
      px      :     0.910518
      py      :     0.787740
      dz2     :     0.002775  d :     0.031370
      dxz     :     0.005880
      dyz     :     0.003089
      dx2y2   :     0.010343
      dxy     :     0.009282
  5 C s       :     3.014750  s :     3.014750
      pz      :     1.040328  p :     2.935379
      px      :     0.920237
      py      :     0.974814
      dz2     :     0.004085  d :     0.049040
      dxz     :     0.007770
      dyz     :     0.007605
      dx2y2   :     0.013962
      dxy     :     0.015618
  6 C s       :     2.962003  s :     2.962003
      pz      :     1.021210  p :     2.993014
      px      :     1.013419
      py      :     0.958384
      dz2     :     0.004393  d :     0.025402
      dxz     :     0.007419
      dyz     :     0.003119
      dx2y2   :     0.003775
      dxy     :     0.006697
  7 H s       :     0.967421  s :     0.967421
      pz      :     0.005545  p :     0.022324
      px      :     0.006480
      py      :     0.010300
  8 H s       :     0.921905  s :     0.921905
      pz      :     0.010640  p :     0.022628
      px      :     0.006905
      py      :     0.005083
  9 H s       :     0.921061  s :     0.921061
      pz      :     0.009375  p :     0.022622
      px      :     0.008165
      py      :     0.005081
 10 Cls       :     5.937332  s :     5.937332
      pz      :     3.858170  p :    11.092898
      px      :     3.734363
      py      :     3.500365
      dz2     :     0.004890  d :     0.035224
      dxz     :     0.004111
      dyz     :     0.007417
      dx2y2   :     0.006355
      dxy     :     0.012451
 11 N s       :     3.344772  s :     3.344772
      pz      :     1.564067  p :     3.673628
      px      :     1.080047
      py      :     1.029515
      dz2     :     0.002131  d :     0.020879
      dxz     :     0.003650
      dyz     :     0.002513
      dx2y2   :     0.006330
      dxy     :     0.006255
 12 C s       :     3.021639  s :     3.021639
      pz      :     0.880090  p :     2.793051
      px      :     0.872644
      py      :     1.040317
      dz2     :     0.006641  d :     0.111906
      dxz     :     0.023105
      dyz     :     0.009383
      dx2y2   :     0.047288
      dxy     :     0.025490
 13 O s       :     3.721976  s :     3.721976
      pz      :     1.376756  p :     4.410268
      px      :     1.500333
      py      :     1.533179
      dz2     :     0.001998  d :     0.017546
      dxz     :     0.003138
      dyz     :     0.002375
      dx2y2   :     0.003958
      dxy     :     0.006078
 14 C s       :     3.096321  s :     3.096321
      pz      :     0.878179  p :     2.915095
      px      :     1.011166
      py      :     1.025750
      dz2     :     0.021710  d :     0.077508
      dxz     :     0.017819
      dyz     :     0.016226
      dx2y2   :     0.013774
      dxy     :     0.007980
 15 O s       :     3.733022  s :     3.733022
      pz      :     1.408174  p :     4.503691
      px      :     1.383696
      py      :     1.711821
      dz2     :     0.004819  d :     0.012627
      dxz     :     0.001758
      dyz     :     0.002297
      dx2y2   :     0.001093
      dxy     :     0.002660
 16 C s       :     2.915495  s :     2.915495
      pz      :     0.971549  p :     2.887419
      px      :     0.954576
      py      :     0.961294
      dz2     :     0.006712  d :     0.028431
      dxz     :     0.005682
      dyz     :     0.003153
      dx2y2   :     0.009215
      dxy     :     0.003669
 17 C s       :     3.157121  s :     3.157121
      pz      :     0.869837  p :     2.792233
      px      :     0.983247
      py      :     0.939149
      dz2     :     0.006661  d :     0.091078
      dxz     :     0.008231
      dyz     :     0.016449
      dx2y2   :     0.024031
      dxy     :     0.035705
 18 H s       :     0.971249  s :     0.971249
      pz      :     0.005276  p :     0.023639
      px      :     0.004761
      py      :     0.013602
 19 H s       :     0.941099  s :     0.941099
      pz      :     0.011517  p :     0.021954
      px      :     0.005194
      py      :     0.005242
 20 O s       :     3.739745  s :     3.739745
      pz      :     1.288052  p :     4.384487
      px      :     1.749846
      py      :     1.346589
      dz2     :     0.002287  d :     0.017653
      dxz     :     0.000688
      dyz     :     0.005248
      dx2y2   :     0.005139
      dxy     :     0.004291
 21 C s       :     3.092825  s :     3.092825
      pz      :     1.072791  p :     2.761190
      px      :     0.794721
      py      :     0.893679
      dz2     :     0.006570  d :     0.070323
      dxz     :     0.012968
      dyz     :     0.007147
      dx2y2   :     0.022994
      dxy     :     0.020643
 22 C s       :     3.236642  s :     3.236642
      pz      :     1.006322  p :     2.785444
      px      :     0.836118
      py      :     0.943005
      dz2     :     0.003340  d :     0.033743
      dxz     :     0.005144
      dyz     :     0.005262
      dx2y2   :     0.011308
      dxy     :     0.008688
 23 C s       :     3.180324  s :     3.180324
      pz      :     1.028449  p :     2.811012
      px      :     0.945645
      py      :     0.836918
      dz2     :     0.002837  d :     0.033792
      dxz     :     0.006646
      dyz     :     0.004080
      dx2y2   :     0.008578
      dxy     :     0.011651
 24 C s       :     3.145465  s :     3.145465
      pz      :     1.024259  p :     2.676538
      px      :     0.837287
      py      :     0.814992
      dz2     :     0.006424  d :     0.065620
      dxz     :     0.006291
      dyz     :     0.012118
      dx2y2   :     0.020347
      dxy     :     0.020439
 25 O s       :     3.684328  s :     3.684328
      pz      :     1.597319  p :     4.371926
      px      :     1.241528
      py      :     1.533080
      dz2     :     0.002620  d :     0.023291
      dxz     :     0.004777
      dyz     :     0.003649
      dx2y2   :     0.006059
      dxy     :     0.006185
 26 H s       :     0.990711  s :     0.990711
      pz      :     0.005182  p :     0.022643
      px      :     0.013513
      py      :     0.003948
 27 H s       :     0.966968  s :     0.966968
      pz      :     0.005277  p :     0.023246
      px      :     0.011276
      py      :     0.006693
 28 H s       :     0.971722  s :     0.971722
      pz      :     0.005930  p :     0.023076
      px      :     0.004432
      py      :     0.012713
 29 H s       :     0.946655  s :     0.946655
      pz      :     0.005798  p :     0.023179
      px      :     0.014629
      py      :     0.002752
 30 H s       :     0.991143  s :     0.991143
      pz      :     0.005650  p :     0.022918
      px      :     0.005462
      py      :     0.011807
 31 H s       :     0.822833  s :     0.822833
      pz      :     0.011722  p :     0.041522
      px      :     0.007788
      py      :     0.022011
 32 H s       :     0.745857  s :     0.745857
      pz      :     0.013449  p :     0.064740
      px      :     0.029325
      py      :     0.021965


                     *******************************
                     * LOEWDIN POPULATION ANALYSIS *
                     *******************************

----------------------
LOEWDIN ATOMIC CHARGES
----------------------
   0 C :   -0.062813
   1 C :    0.024474
   2 C :   -0.058336
   3 C :   -0.015652
   4 C :   -0.055971
   5 C :   -0.109125
   6 C :   -0.060733
   7 H :    0.026270
   8 H :    0.047031
   9 H :    0.047276
  10 Cl:    0.135959
  11 N :    0.044502
  12 C :    0.022902
  13 O :   -0.155483
  14 C :    0.016420
  15 O :   -0.092912
  16 C :   -0.055318
  17 C :    0.020862
  18 H :    0.021322
  19 H :    0.054734
  20 O :   -0.118701
  21 C :   -0.041446
  22 C :   -0.050414
  23 C :   -0.075323
  24 C :    0.030175
  25 O :    0.102134
  26 H :    0.032750
  27 H :    0.035037
  28 H :    0.034395
  29 H :    0.030199
  30 H :    0.032023
  31 H :    0.099406
  32 H :    0.094355

-------------------------------
LOEWDIN REDUCED ORBITAL CHARGES
-------------------------------
  0 C s       :     2.852959  s :     2.852959
      pz      :     1.027616  p :     3.105319
      px      :     1.024835
      py      :     1.052868
      dz2     :     0.009301  d :     0.104536
      dxz     :     0.009505
      dyz     :     0.015220
      dx2y2   :     0.031330
      dxy     :     0.039179
  1 C s       :     2.827106  s :     2.827106
      pz      :     0.997056  p :     3.002650
      px      :     1.041537
      py      :     0.964057
[...]
      px      :     0.811576
      py      :     0.911887
      dz2     :     0.012149  d :     0.060795
      dxz     :     0.012820
      dyz     :     0.009006
      dx2y2   :     0.013195
      dxy     :     0.013624
 25 O s       :     3.743297  s :     3.743297
      pz      :     1.565128  p :     4.386560
      px      :     1.235208
      py      :     1.586224
      dz2     :     0.003425  d :     0.020177
      dxz     :     0.004527
      dyz     :     0.003433
      dx2y2   :     0.003394
      dxy     :     0.005398
 26 H s       :     0.979795  s :     0.979795
      pz      :     0.004980  p :     0.021868
      px      :     0.013340
      py      :     0.003548
 27 H s       :     0.949555  s :     0.949555
      pz      :     0.005710  p :     0.023132
      px      :     0.010952
      py      :     0.006470
 28 H s       :     0.954788  s :     0.954788
      pz      :     0.008915  p :     0.022402
      px      :     0.004794
      py      :     0.008693
 29 H s       :     0.938319  s :     0.938319
      pz      :     0.003931  p :     0.021789
      px      :     0.013582
      py      :     0.004276
 30 H s       :     0.981200  s :     0.981200
      pz      :     0.005200  p :     0.022197
      px      :     0.006284
      py      :     0.010713
 31 H s       :     0.824482  s :     0.824482
      pz      :     0.011252  p :     0.041347
      px      :     0.006766
      py      :     0.023329
 32 H s       :     0.751339  s :     0.751339
      pz      :     0.015052  p :     0.066965
      px      :     0.030027
      py      :     0.021886


                     *******************************
                     * LOEWDIN POPULATION ANALYSIS *
                     *******************************

----------------------
LOEWDIN ATOMIC CHARGES
----------------------
   0 C :   -0.063754
   1 C :    0.030749
   2 C :   -0.059258
   3 C :   -0.018321
   4 C :   -0.059705
   5 C :   -0.112682
   6 C :   -0.065605
   7 H :    0.041345
   8 H :    0.041818
   9 H :    0.040459
  10 Cl:    0.135582
  11 N :    0.034172
  12 C :    0.050784
  13 O :   -0.154340
  14 C :    0.013438
  15 O :   -0.084356
  16 C :   -0.057546
  17 C :    0.032989
  18 H :    0.036322
  19 H :    0.048122
  20 O :   -0.133170
  21 C :   -0.025662
  22 C :   -0.047816
  23 C :   -0.080329
  24 C :    0.049438
  25 O :    0.047411
  26 H :    0.036168
  27 H :    0.039385
  28 H :    0.040244
  29 H :    0.033432
  30 H :    0.038496
  31 H :    0.093956
  32 H :    0.078235

-------------------------------
LOEWDIN REDUCED ORBITAL CHARGES
-------------------------------
  0 C s       :     2.859087  s :     2.859087
      pz      :     1.024041  p :     3.103103
      px      :     1.024244
      py      :     1.054818
      dz2     :     0.008124  d :     0.101564
      dxz     :     0.008962
      dyz     :     0.014052
      dx2y2   :     0.032853
      dxy     :     0.037572
  1 C s       :     2.836215  s :     2.836215
      pz      :     0.996993  p :     2.993673
      px      :     1.020780
      py      :     0.975900
      dz2     :     0.009796  d :     0.139363
      dxz     :     0.021354
      dyz     :     0.019594
      dx2y2   :     0.034573
      dxy     :     0.054045
  2 C s       :     2.855187  s :     2.855187
      pz      :     1.009142  p :     3.101756
      px      :     1.049156
      py      :     1.043458
      dz2     :     0.007237  d :     0.102315
      dxz     :     0.012067
      dyz     :     0.011869
      dx2y2   :     0.038639
      dxy     :     0.032503
  3 C s       :     2.870136  s :     2.870136
      pz      :     0.977545  p :     3.061682
      px      :     1.034045
      py      :     1.050091
      dz2     :     0.005966  d :     0.086503
      dxz     :     0.003781
      dyz     :     0.015722
      dx2y2   :     0.033325
      dxy     :     0.027708
  4 C s       :     2.873148  s :     2.873148
      pz      :     1.011596  p :     3.102014
      px      :     1.039080
      py      :     1.051337
      dz2     :     0.006492  d :     0.084544
      dxz     :     0.010989
      dyz     :     0.006855
      dx2y2   :     0.031401
      dxy     :     0.028807
  5 C s       :     2.909202  s :     2.909202
      pz      :     1.040976  p :     3.082920
      px      :     1.076144
      py      :     0.965801
      dz2     :     0.008110  d :     0.120560
      dxz     :     0.015323
      dyz     :     0.015596
      dx2y2   :     0.040218
      dxy     :     0.041312
  6 C s       :     2.843860  s :     2.843860
      pz      :     1.065920  p :     3.153830
      px      :     1.061879
      py      :     1.026030
      dz2     :     0.012030  d :     0.067915
      dxz     :     0.004820
      dyz     :     0.021794
      dx2y2   :     0.017939
      dxy     :     0.011332
  7 H s       :     0.894550  s :     0.894550
      pz      :     0.030895  p :     0.064105
      px      :     0.015042
      py      :     0.018167
  8 H s       :     0.894280  s :     0.894280
      pz      :     0.012409  p :     0.063902
      px      :     0.039723
      py      :     0.011771
  9 H s       :     0.895534  s :     0.895534
      pz      :     0.029067  p :     0.064007
      px      :     0.013057
      py      :     0.021883
 10 Cls       :     5.765108  s :     5.765108
      pz      :     3.882700  p :    11.058572
      px      :     3.782463
      py      :     3.393408
      dz2     :     0.005763  d :     0.040739
      dxz     :     0.002370
      dyz     :     0.008424
      dx2y2   :     0.010247
      dxy     :     0.013934
 11 N s       :     3.060002  s :     3.060002
      pz      :     1.529207  p :     3.851497
      px      :     1.174318
      py      :     1.147972
      dz2     :     0.004708  d :     0.054329
      dxz     :     0.007100
      dyz     :     0.003359
      dx2y2   :     0.019462
      dxy     :     0.019701
 12 C s       :     2.856342  s :     2.856342
      pz      :     0.847924  p :     2.840095
      px      :     0.965373
      py      :     1.026798
      dz2     :     0.017677  d :     0.252778
      dxz     :     0.048183
      dyz     :     0.014733
      dx2y2   :     0.105750
      dxy     :     0.066435
 13 O s       :     3.553101  s :     3.553101
      pz      :     1.395199  p :     4.570345
      px      :     1.518829
      py      :     1.656318
      dz2     :     0.004139  d :     0.030894
      dxz     :     0.005603
      dyz     :     0.002402
      dx2y2   :     0.007307
      dxy     :     0.011443
 14 C s       :     2.860847  s :     2.860847
      pz      :     0.933590  p :     2.954619
      px      :     0.996138
      py      :     1.024891
      dz2     :     0.050675  d :     0.171096
      dxz     :     0.035654
      dyz     :     0.027896
      dx2y2   :     0.041423
      dxy     :     0.015447
 15 O s       :     3.459088  s :     3.459088
      pz      :     1.517800  p :     4.600916
      px      :     1.419710
      py      :     1.663406
      dz2     :     0.007168  d :     0.024352
      dxz     :     0.003368
      dyz     :     0.004502
      dx2y2   :     0.001976
      dxy     :     0.007339
 16 C s       :     2.870134  s :     2.870134
      pz      :     1.026885  p :     3.110184
      px      :     1.026338
      py      :     1.056960
      dz2     :     0.016666  d :     0.077229
      dxz     :     0.019035
      dyz     :     0.009186
      dx2y2   :     0.022252
      dxy     :     0.010091
 17 C s       :     2.878710  s :     2.878710
      pz      :     0.925492  p :     2.875026
      px      :     1.030936
      py      :     0.918598
      dz2     :     0.036544  d :     0.213275
      dxz     :     0.053144
      dyz     :     0.035253
      dx2y2   :     0.033032
      dxy     :     0.055303
 18 H s       :     0.893329  s :     0.893329
      pz      :     0.013133  p :     0.070349
      px      :     0.013751
      py      :     0.043466
 19 H s       :     0.884752  s :     0.884752
      pz      :     0.031333  p :     0.067126
      px      :     0.020890
      py      :     0.014904
 20 O s       :     3.559455  s :     3.559455
      pz      :     1.395286  p :     4.543882
      px      :     1.771893
      py      :     1.376703
      dz2     :     0.005808  d :     0.029833
      dxz     :     0.003757
      dyz     :     0.011755
      dx2y2   :     0.004725
      dxy     :     0.003787
 21 C s       :     2.881820  s :     2.881820
      pz      :     1.066094  p :     2.993602
      px      :     0.878903
      py      :     1.048605
      dz2     :     0.022899  d :     0.150240
      dxz     :     0.032427
      dyz     :     0.017172
      dx2y2   :     0.040606
      dxy     :     0.037136
 22 C s       :     2.882544  s :     2.882544
      pz      :     1.013573  p :     3.079841
      px      :     1.042056
      py      :     1.024212
      dz2     :     0.014936  d :     0.085431
      dxz     :     0.015512
      dyz     :     0.014101
      dx2y2   :     0.023350
      dxy     :     0.017532
 23 C s       :     2.878522  s :     2.878522
      pz      :     1.037678  p :     3.116200
      px      :     1.038321
      py      :     1.040202
      dz2     :     0.009246  d :     0.085606
      dxz     :     0.022051
      dyz     :     0.012471
      dx2y2   :     0.019323
      dxy     :     0.022515
 24 C s       :     2.887194  s :     2.887194
      pz      :     0.963835  p :     2.924863
      px      :     0.979334
      py      :     0.981694
      dz2     :     0.025504  d :     0.138505
      dxz     :     0.029426
      dyz     :     0.022287
      dx2y2   :     0.029124
      dxy     :     0.032163
 25 O s       :     3.442004  s :     3.442004
      pz      :     1.577278  p :     4.472812
      px      :     1.294904
      py      :     1.600630
      dz2     :     0.005320  d :     0.037772
      dxz     :     0.009406
      dyz     :     0.005099
      dx2y2   :     0.006891
      dxy     :     0.011056
 26 H s       :     0.897846  s :     0.897846
      pz      :     0.014221  p :     0.065986
      px      :     0.041431
      py      :     0.010334
 27 H s       :     0.888379  s :     0.888379
      pz      :     0.017046  p :     0.072236
      px      :     0.034834
      py      :     0.020357
 28 H s       :     0.891319  s :     0.891319
      pz      :     0.026967  p :     0.068438
      px      :     0.015090
      py      :     0.026381
 29 H s       :     0.897169  s :     0.897169
      pz      :     0.012261  p :     0.069398
      px      :     0.043565
      py      :     0.013572
 30 H s       :     0.893667  s :     0.893667
      pz      :     0.015148  p :     0.067837
      px      :     0.019568
      py      :     0.033121
 31 H s       :     0.784675  s :     0.784675
      pz      :     0.034927  p :     0.121370
      px      :     0.019537
      py      :     0.066906
 32 H s       :     0.743502  s :     0.743502
      pz      :     0.038266  p :     0.178263
      px      :     0.077859
      py      :     0.062137


                      *****************************
                      * MAYER POPULATION ANALYSIS *
                      *****************************

  NA   - Mulliken gross atomic population
  ZA   - Total nuclear charge
  QA   - Mulliken gross atomic charge
  VA   - Mayer's total valence
  BVA  - Mayer's bonded valence
  FA   - Mayer's free valence

  ATOM       NA         ZA         QA         VA         BVA        FA
  0 C      5.8978     6.0000     0.1022     3.8756     3.8756    -0.0000
  1 C      5.9725     6.0000     0.0275     4.1185     4.1185    -0.0000
  2 C      6.0515     6.0000    -0.0515     3.9159     3.9159    -0.0000
  3 C      6.0607     6.0000    -0.0607     3.8388     3.8388    -0.0000
  4 C      5.9821     6.0000     0.0179     3.8226     3.8226    -0.0000
  5 C      6.0343     6.0000    -0.0343     3.9414     3.9414    -0.0000
  6 C      6.0008     6.0000    -0.0008     3.9252     3.9252    -0.0000
  7 H      0.9484     1.0000     0.0516     0.9851     0.9851    -0.0000
  8 H      0.9671     1.0000     0.0329     1.0014     1.0014    -0.0000
  9 H      0.9498     1.0000     0.0502     0.9844     0.9844    -0.0000
 10 Cl    17.0647    17.0000    -0.0647     1.2191     1.2191    -0.0000
 11 N      7.0852     7.0000    -0.0852     3.2958     3.2958    -0.0000
 12 C      5.8576     6.0000     0.1424     4.2076     4.2076    -0.0000
 13 O      8.1667     8.0000    -0.1667     2.3695     2.3695    -0.0000
 14 C      6.1430     6.0000    -0.1430     4.0130     4.0130     0.0000
 15 O      8.2263     8.0000    -0.2263     2.1938     2.1938    -0.0000
 16 C      5.8695     6.0000     0.1305     3.7459     3.7459    -0.0000
 17 C      5.9816     6.0000     0.0184     4.2697     4.2697    -0.0000
 18 H      0.9566     1.0000     0.0434     1.0161     1.0161    -0.0000
 19 H      0.9742     1.0000     0.0258     1.0157     1.0157    -0.0000
 20 O      8.1534     8.0000    -0.1534     2.3457     2.3457    -0.0000
 21 C      5.9580     6.0000     0.0420     3.7170     3.7170    -0.0000
 22 C      6.0453     6.0000    -0.0453     3.8255     3.8255    -0.0000
 23 C      6.0288     6.0000    -0.0288     3.7659     3.7659    -0.0000
 24 C      5.8749     6.0000     0.1251     3.8158     3.8158    -0.0000
 25 O      8.1500     8.0000    -0.1500     2.4660     2.4660    -0.0000
 26 H      1.0017     1.0000    -0.0017     0.9890     0.9890     0.0000
 27 H      0.9727     1.0000     0.0273     1.0286     1.0286    -0.0000
 28 H      0.9772     1.0000     0.0228     0.9903     0.9903    -0.0000
 29 H      0.9601     1.0000     0.0399     0.9950     0.9950    -0.0000
 30 H      1.0034     1.0000    -0.0034     0.9990     0.9990    -0.0000
 31 H      0.8658     1.0000     0.1342     1.0118     1.0118    -0.0000
 32 H      0.8183     1.0000     0.1817     1.0443     1.0443    -0.0000

  Mayer bond orders larger than 0.100000
B(  0-C ,  1-C ) :   1.3478 B(  0-C ,  5-C ) :   1.4582 B(  0-C , 14-C ) :   0.9275 
B(  1-C ,  2-C ) :   1.3748 B(  1-C , 11-N ) :   1.0956 B(  2-C ,  3-C ) :   1.3401 
B(  2-C ,  6-C ) :   1.0784 B(  3-C ,  4-C ) :   1.3468 B(  3-C , 26-H ) :   0.9673 
B(  4-C ,  5-C ) :   1.3313 B(  4-C , 30-H ) :   0.9794 B(  5-C , 10-Cl) :   1.0244 
B(  6-C ,  7-H ) :   0.9488 B(  6-C ,  8-H ) :   0.9401 B(  6-C ,  9-H ) :   0.9484 
B( 11-N , 12-C ) :   1.1465 B( 11-N , 31-H ) :   0.9055 B( 12-C , 13-O ) :   2.1246 
B( 12-C , 14-C ) :   0.8420 B( 14-C , 15-O ) :   1.1403 B( 14-C , 16-C ) :   0.9658 
B( 15-O , 32-H ) :   0.9341 B( 16-C , 17-C ) :   1.0230 B( 16-C , 18-H ) :   0.8910 
B( 16-C , 19-H ) :   0.8809 B( 17-C , 20-O ) :   2.1576 B( 17-C , 21-C ) :   0.9656 
B( 21-C , 22-C ) :   1.4633 B( 21-C , 24-C ) :   0.1067 B( 21-C , 25-O ) :   1.1451 
B( 22-C , 23-C ) :   1.2456 B( 22-C , 27-H ) :   0.9785 B( 23-C , 24-C ) :   1.4719 
B( 23-C , 28-H ) :   0.9891 B( 24-C , 25-O ) :   1.1895 B( 24-C , 29-H ) :   0.9906 


-------
TIMINGS
-------

Total SCF time: 0 days 0 hours 0 min 16 sec 

Total time                  ....      16.887 sec
Sum of individual times     ....      16.575 sec  ( 98.2%)

Fock matrix formation       ....      14.977 sec  ( 88.7%)
  Split-RI-J                ....       5.946 sec  ( 39.7% of F)
  XC integration            ....       9.008 sec  ( 60.1% of F)
    Basis function eval.    ....       3.520 sec  ( 39.1% of XC)
    Density eval.           ....       2.117 sec  ( 23.5% of XC)
    XC-Functional eval.     ....       0.389 sec  (  4.3% of XC)
    XC-Potential eval.      ....       2.467 sec  ( 27.4% of XC)
Diagonalization             ....       0.012 sec  (  0.1%)
Density matrix formation    ....       0.017 sec  (  0.1%)
Population analysis         ....       0.051 sec  (  0.3%)
Initial guess               ....       0.014 sec  (  0.1%)
Orbital Transformation      ....       0.000 sec  (  0.0%)
Orbital Orthonormalization  ....       0.009 sec  (  0.1%)
DIIS solution               ....       0.001 sec  (  0.0%)
SOSCF solution              ....       0.044 sec  (  0.3%)
Grid generation             ....       1.459 sec  (  8.6%)

Maximum memory used throughout the entire SCF-calculation: 123.0 MB


-------------------------------------------------------------------------------
                          DFT DISPERSION CORRECTION                            
                                                                               
                              DFTD3 V3.1  Rev 1                                
                          USING Becke-Johnson damping                          
-------------------------------------------------------------------------------
The BP86 functional is recognized
Active option DFTDOPT                   ...         4   

molecular C6(AA) [au] = 14429.911245 


            DFT-D V3
 parameters
 s6 scaling factor         :     1.0000 
 a1 scaling factor         :     0.3946 
 s8 scaling factor         :     3.2822 
 a2 scaling factor         :     4.8516 
 ad hoc parameters k1-k3   :    16.0000     1.3333    -4.0000 

 Edisp/kcal,au: -46.188020483114  -0.073605287992 
 E6   /kcal   : -17.168825890 
 E8   /kcal   : -29.019194593 
 % E8         :  62.828400718 

-------------------------   ----------------
Dispersion correction           -0.073605288
-------------------------   ----------------


-------------------------   --------------------
FINAL SINGLE POINT ENERGY     -1393.990123839265
-------------------------   --------------------

                                *** OPTIMIZATION RUN DONE ***

                            ***************************************
                            *     ORCA property calculations      *
                            ***************************************

                                    ---------------------
                                    Active property flags
                                    ---------------------
   (+) Dipole Moment


------------------------------------------------------------------------------
                       ORCA ELECTRIC PROPERTIES CALCULATION
------------------------------------------------------------------------------

Dipole Moment Calculation                       ... on
Quadrupole Moment Calculation                   ... off
Polarizability Calculation                      ... off
GBWName                                         ... input.gbw
Electron density                                ... input.scfp
The origin for moment calculation is the CENTER OF MASS  = ( 3.184724,  2.995899  0.002505)

-------------
DIPOLE MOMENT
-------------
                                X             Y             Z
Electronic contribution:      5.69424       8.20729       0.64692
Nuclear contribution   :     -6.82448      -8.07628      -0.09236
                        -----------------------------------------
Total Dipole Moment    :     -1.13024       0.13101       0.55455
                        -----------------------------------------
Magnitude (a.u.)       :      1.26575
Magnitude (Debye)      :      3.21729



--------------------
Rotational spectrum 
--------------------
 
Rotational constants in cm-1:     0.018131     0.006344     0.005177 
Rotational constants in MHz :   543.552702   190.188036   155.190798 

 Dipole components along the rotational axes: 
x,y,z [a.u.] :     1.129514     0.373831     0.431950 
x,y,z [Debye]:     2.870997     0.950203     1.097929 

 

Timings for individual modules:

Sum of individual times         ...     1090.747 sec (=  18.179 min)
GTO integral calculation        ...        6.466 sec (=   0.108 min)   0.6 %
SCF iterations                  ...      718.503 sec (=  11.975 min)  65.9 %
SCF Gradient evaluation         ...      362.692 sec (=   6.045 min)  33.3 %
Geometry relaxation             ...        3.086 sec (=   0.051 min)   0.3 %
                             ****ORCA TERMINATED NORMALLY****
TOTAL RUN TIME: 0 days 0 hours 18 minutes 15 seconds 575 msec
