
                                 *****************
                                 * O   R   C   A *
                                 *****************

                                            #,                                       
                                            ###                                      
                                            ####                                     
                                            #####                                    
                                            ######                                   
                                           ########,                                 
                                     ,,################,,,,,                         
                               ,,#################################,,                 
                          ,,##########################################,,             
                       ,#########################################, ''#####,          
                    ,#############################################,,   '####,        
                  ,##################################################,,,,####,       
                ,###########''''           ''''###############################       
              ,#####''   ,,,,##########,,,,          '''####'''          '####       
            ,##' ,,,,###########################,,,                        '##       
           ' ,,###''''                  '''############,,,                           
         ,,##''                                '''############,,,,        ,,,,,,###''
      ,#''                                            '''#######################'''  
     '                                                          ''''####''''         
             ,#######,   #######,   ,#######,      ##                                
            ,#'     '#,  ##    ##  ,#'     '#,    #''#        ######   ,####,        
            ##       ##  ##   ,#'  ##            #'  '#       #        #'  '#        
            ##       ##  #######   ##           ,######,      #####,   #    #        
            '#,     ,#'  ##    ##  '#,     ,#' ,#      #,         ##   #,  ,#        
             '#######'   ##     ##  '#######'  #'      '#     #####' # '####'        



                  #######################################################
                  #                        -***-                        #
                  #          Department of theory and spectroscopy      #
                  #    Directorship and core code : Frank Neese         #
                  #        Max Planck Institute fuer Kohlenforschung    #
                  #                Kaiser Wilhelm Platz 1               #
                  #                 D-45470 Muelheim/Ruhr               #
                  #                      Germany                        #
                  #                                                     #
                  #                  All rights reserved                #
                  #                        -***-                        #
                  #######################################################


                         Program Version 5.0.4 -  RELEASE  -


 With contributions from (in alphabetic order):
   Daniel Aravena         : Magnetic Suceptibility
   Michael Atanasov       : Ab Initio Ligand Field Theory (pilot matlab implementation)
   Alexander A. Auer      : GIAO ZORA, VPT2 properties, NMR spectrum
   Ute Becker             : Parallelization
   Giovanni Bistoni       : ED, misc. LED, open-shell LED, HFLD
   Martin Brehm           : Molecular dynamics
   Dmytro Bykov           : SCF Hessian
   Vijay G. Chilkuri      : MRCI spin determinant printing, contributions to CSF-ICE
   Dipayan Datta          : RHF DLPNO-CCSD density
   Achintya Kumar Dutta   : EOM-CC, STEOM-CC
   Dmitry Ganyushin       : Spin-Orbit,Spin-Spin,Magnetic field MRCI
   Miquel Garcia          : C-PCM and meta-GGA Hessian, CC/C-PCM, Gaussian charge scheme
   Yang Guo               : DLPNO-NEVPT2, F12-NEVPT2, CIM, IAO-localization
   Andreas Hansen         : Spin unrestricted coupled pair/coupled cluster methods
   Benjamin Helmich-Paris : MC-RPA, TRAH-SCF, COSX integrals
   Lee Huntington         : MR-EOM, pCC
   Robert Izsak           : Overlap fitted RIJCOSX, COSX-SCS-MP3, EOM
   Marcus Kettner         : VPT2
   Christian Kollmar      : KDIIS, OOCD, Brueckner-CCSD(T), CCSD density, CASPT2, CASPT2-K
   Simone Kossmann        : Meta GGA functionals, TD-DFT gradient, OOMP2, MP2 Hessian
   Martin Krupicka        : Initial AUTO-CI
   Lucas Lang             : DCDCAS
   Marvin Lechner         : AUTO-CI (C++ implementation), FIC-MRCC
   Dagmar Lenk            : GEPOL surface, SMD
   Dimitrios Liakos       : Extrapolation schemes; Compound Job, initial MDCI parallelization
   Dimitrios Manganas     : Further ROCIS development; embedding schemes
   Dimitrios Pantazis     : SARC Basis sets
   Anastasios Papadopoulos: AUTO-CI, single reference methods and gradients
   Taras Petrenko         : DFT Hessian,TD-DFT gradient, ASA, ECA, R-Raman, ABS, FL, XAS/XES, NRVS
   Peter Pinski           : DLPNO-MP2, DLPNO-MP2 Gradient
   Christoph Reimann      : Effective Core Potentials
   Marius Retegan         : Local ZFS, SOC
   Christoph Riplinger    : Optimizer, TS searches, QM/MM, DLPNO-CCSD(T), (RO)-DLPNO pert. Triples
   Tobias Risthaus        : Range-separated hybrids, TD-DFT gradient, RPA, STAB
   Michael Roemelt        : Original ROCIS implementation
   Masaaki Saitow         : Open-shell DLPNO-CCSD energy and density
   Barbara Sandhoefer     : DKH picture change effects
   Avijit Sen             : IP-ROCIS
   Kantharuban Sivalingam : CASSCF convergence, NEVPT2, FIC-MRCI
   Bernardo de Souza      : ESD, SOC TD-DFT
   Georgi Stoychev        : AutoAux, RI-MP2 NMR, DLPNO-MP2 response
   Willem Van den Heuvel  : Paramagnetic NMR
   Boris Wezisla          : Elementary symmetry handling
   Frank Wennmohs         : Technical directorship


 We gratefully acknowledge several colleagues who have allowed us to
 interface, adapt or use parts of their codes:
   Stefan Grimme, W. Hujo, H. Kruse, P. Pracht,  : VdW corrections, initial TS optimization,
                  C. Bannwarth, S. Ehlert          DFT functionals, gCP, sTDA/sTD-DF
   Ed Valeev, F. Pavosevic, A. Kumar             : LibInt (2-el integral package), F12 methods
   Garnet Chan, S. Sharma, J. Yang, R. Olivares  : DMRG
   Ulf Ekstrom                                   : XCFun DFT Library
   Mihaly Kallay                                 : mrcc  (arbitrary order and MRCC methods)
   Jiri Pittner, Ondrej Demel                    : Mk-CCSD
   Frank Weinhold                                : gennbo (NPA and NBO analysis)
   Christopher J. Cramer and Donald G. Truhlar   : smd solvation model
   Lars Goerigk                                  : TD-DFT with DH, B97 family of functionals
   V. Asgeirsson, H. Jonsson                     : NEB implementation
   FAccTs GmbH                                   : IRC, NEB, NEB-TS, DLPNO-Multilevel, CI-OPT
                                                   MM, QMMM, 2- and 3-layer-ONIOM, Crystal-QMMM,
                                                   LR-CPCM, SF, NACMEs, symmetry and pop. for TD-DFT,
                                                   nearIR, NL-DFT gradient (VV10), updates on ESD,
                                                   ML-optimized integration grids
   S Lehtola, MJT Oliveira, MAL Marques          : LibXC Library
   Liviu Ungur et al                             : ANISO software


 Your calculation uses the libint2 library for the computation of 2-el integrals
 For citations please refer to: http://libint.valeyev.net

 Your ORCA version has been built with support for libXC version: 5.1.0
 For citations please refer to: https://tddft.org/programs/libxc/

 This ORCA versions uses:
   CBLAS   interface :  Fast vector & matrix operations
   LAPACKE interface :  Fast linear algebra routines
   SCALAPACK package :  Parallel linear algebra routines
   Shared memory     :  Shared parallel matrices


Your calculation utilizes the atom-pairwise dispersion correction
with the Becke-Johnson damping scheme (D3BJ)
Cite in your paper:
S.Grimme, S.Ehrlich, L.Goerigk, J Comput Chem, (2011), 32, 1456–1465 
S.Grimme, J.Antony, S.Ehrlich and H.Krieg, J.Chem.Phys., 132, (2010), 154104 
   

================================================================================

----- Orbital basis set information -----
Your calculation utilizes the basis: def2-SVP
   F. Weigend and R. Ahlrichs, Phys. Chem. Chem. Phys. 7, 3297 (2005).

----- AuxJ basis set information -----
Your calculation utilizes the auxiliary basis: def2/J
   F. Weigend, Phys. Chem. Chem. Phys. 8, 1057 (2006).

================================================================================
                                        WARNINGS
                       Please study these warnings very carefully!
================================================================================


WARNING: Geometry Optimization
  ===> : Switching off AutoStart
         For restart on a previous wavefunction, please use MOREAD

INFO   : the flag for use of the SHARK integral package has been found!

================================================================================
                                       INPUT FILE
================================================================================
NAME = input.inp
|  1> %pal nprocs 1 END
|  2> %MaxCore 3000
|  3> 
|  4> !BP86 D3BJ DEF2-SVP TightSCF
|  5> !OPT
|  6> 
|  7> * xyz 0 1 
|  8> C          0.14830        1.26750        0.34860
|  9> C         -0.64270        0.18840        0.00920
| 10> C         -2.02770        0.28980       -0.10450
| 11> C         -2.62310        1.53540        0.14170
| 12> C         -1.83200        2.64300        0.50090
| 13> C         -0.43520        2.51940        0.61060
| 14> Cl         0.51620        3.91790        1.08620
| 15> N          0.12490       -0.96480       -0.17420
| 16> C          1.41240       -0.63880        0.04770
| 17> O          2.31120       -1.46290       -0.01080
| 18> C          1.59910        0.83680        0.38120
| 19> O          2.10870        1.01920        1.67880
| 20> C          2.43230        1.61060       -0.67580
| 21> C          3.90000        1.23610       -0.70930
| 22> H          2.34130        2.68790       -0.46320
| 23> H          2.00010        1.44760       -1.68740
| 24> O          4.22010        0.10160       -1.02580
| 25> C          4.97730        2.20460       -0.40170
| 26> C          4.84370        3.53270       -0.02990
| 27> C          6.12410        4.00590        0.14280
| 28> C          6.96490        2.94880       -0.12970
| 29> O          6.25400        1.89130       -0.45010
| 30> H         -3.69700        1.64390        0.06230
| 31> H          3.93790        4.10630        0.10510
| 32> H          6.41230        5.00700        0.43420
| 33> H          8.04560        2.97050       -0.09030
| 34> H         -2.30780        3.59540        0.69710
| 35> H         -0.22950       -1.90240       -0.41420
| 36> H          2.95600        0.50630        1.74470
| 37> H         -2.62910       -0.56940       -0.37160
| 38> **                         ****END OF INPUT****
================================================================================

                       *****************************
                       * Geometry Optimization Run *
                       *****************************

Geometry optimization settings:
Update method            Update   .... BFGS
Choice of coordinates    CoordSys .... Z-matrix Internals
Initial Hessian          InHess   .... Almoef's Model

Convergence Tolerances:
Energy Change            TolE     ....  5.0000e-06 Eh
Max. Gradient            TolMAXG  ....  3.0000e-04 Eh/bohr
RMS Gradient             TolRMSG  ....  1.0000e-04 Eh/bohr
Max. Displacement        TolMAXD  ....  4.0000e-03 bohr
RMS Displacement         TolRMSD  ....  2.0000e-03 bohr
Strict Convergence                ....  False
------------------------------------------------------------------------------
                        ORCA OPTIMIZATION COORDINATE SETUP
------------------------------------------------------------------------------

The optimization will be done in new redundant internal coordinates
Making redundant internal coordinates   ...  (new redundants) done
Evaluating the initial hessian          ...  (Almloef) done
Evaluating the coordinates              ...  done
Calculating the B-matrix                .... done
Calculating the G-matrix                .... done
Diagonalizing the G-matrix              .... done
Small eigenvalue found = 4.922e-03
Small eigenvalue found = 1.251e-02
The first mode is                       ....   83
The number of degrees of freedom        ....   84

    -----------------------------------------------------------------
                    Redundant Internal Coordinates


    -----------------------------------------------------------------
         Definition                    Initial Value    Approx d2E/dq
    -----------------------------------------------------------------
      1. B(C   1,C   0)                  1.3803         0.647374   
      2. B(C   2,C   1)                  1.3934         0.617146   
      3. B(C   3,C   2)                  1.4024         0.597045   
      4. B(C   4,C   3)                  1.4077         0.585446   
      5. B(C   5,C   4)                  1.4065         0.587958   
      6. B(C   5,C   0)                  1.4058         0.589489   
      7. B(Cl  6,C   5)                  1.7570         0.364048   
      8. B(N   7,C   1)                  1.3974         0.544597   
      9. B(C   8,N   7)                  1.3465         0.656466   
     10. B(O   9,C   8)                  1.2208         1.041812   
     11. B(C  10,C   8)                  1.5243         0.381487   
     12. B(C  10,C   0)                  1.5137         0.396580   
     13. B(O  11,C  10)                  1.4060         0.527728   
     14. B(C  12,C  10)                  1.5525         0.343946   
     15. B(C  13,C  12)                  1.5151         0.394599   
     16. B(H  14,C  12)                  1.1018         0.344771   
     17. B(H  15,C  12)                  1.1121         0.332056   
     18. B(O  16,C  13)                  1.2205         1.042875   
     19. B(C  17,C  13)                  1.4809         0.447351   
     20. B(C  18,C  17)                  1.3856         0.634939   
     21. B(C  19,C  18)                  1.3759         0.657954   
     22. B(C  20,C  19)                  1.3779         0.653150   
     23. B(O  21,C  20)                  1.3139         0.740088   
     24. B(O  21,C  17)                  1.3155         0.735839   
     25. B(H  22,C   3)                  1.0823         0.370454   
     26. B(H  23,C  18)                  1.0806         0.372740   
     27. B(H  24,C  19)                  1.0817         0.371186   
     28. B(H  25,C  20)                  1.0816         0.371337   
     29. B(H  26,C   4)                  1.0826         0.370072   
     30. B(H  27,N   7)                  1.0307         0.401058   
     31. B(H  28,O  11)                  0.9926         0.461209   
     32. B(H  29,C   2)                  1.0822         0.370510   
     33. A(C   1,C   0,C  10)          109.3954         0.403939   
     34. A(C   5,C   0,C  10)          130.3278         0.397332   
     35. A(C   1,C   0,C   5)          120.2744         0.433500   
     36. A(C   2,C   1,N   7)          126.5384         0.420981   
     37. A(C   0,C   1,N   7)          111.2626         0.424594   
     38. A(C   0,C   1,C   2)          122.1938         0.437093   
     39. A(C   3,C   2,H  29)          120.8342         0.352358   
     40. A(C   1,C   2,C   3)          118.1860         0.430775   
     41. A(C   1,C   2,H  29)          120.9794         0.354339   
     42. A(C   2,C   3,H  22)          119.8310         0.352349   
     43. A(C   4,C   3,H  22)          119.8325         0.351182   
     44. A(C   2,C   3,C   4)          120.3350         0.426720   
     45. A(C   5,C   4,H  26)          119.9763         0.351375   
     46. A(C   3,C   4,H  26)          119.4364         0.351121   
     47. A(C   3,C   4,C   5)          120.5869         0.425550   
     48. A(C   0,C   5,Cl  6)          122.3095         0.408861   
     49. A(C   0,C   5,C   4)          118.4179         0.426074   
     50. A(C   4,C   5,Cl  6)          119.2682         0.408673   
     51. A(C   8,N   7,H  27)          125.9718         0.357523   
     52. A(C   1,N   7,C   8)          107.6860         0.422885   
     53. A(C   1,N   7,H  27)          126.3279         0.346405   
     54. A(N   7,C   8,C  10)          112.8012         0.399595   
     55. A(N   7,C   8,O   9)          122.1827         0.475687   
     56. A(O   9,C   8,C  10)          125.0144         0.433820   
     57. A(O  11,C  10,C  12)          111.6650         0.377771   
     58. A(C   8,C  10,C  12)          113.5329         0.359548   
     59. A(C   0,C  10,C  12)          110.9709         0.361935   
     60. A(C   8,C  10,O  11)          111.8335         0.384622   
     61. A(C   0,C  10,O  11)          109.2901         0.387230   
     62. A(C   0,C  10,C   8)           98.8203         0.368410   
     63. A(C  10,O  11,H  28)          107.6755         0.352792   
     64. A(H  14,C  12,H  15)          106.6622         0.285228   
     65. A(C  13,C  12,H  15)          108.6716         0.322921   
     66. A(C  10,C  12,H  15)          109.7364         0.315759   
     67. A(C  13,C  12,H  14)          109.0229         0.324919   
     68. A(C  10,C  12,H  14)          108.1575         0.317696   
     69. A(C  10,C  12,C  13)          114.3148         0.361626   
     70. A(O  16,C  13,C  17)          118.0963         0.446559   
     71. A(C  12,C  13,C  17)          122.5778         0.378338   
     72. A(C  12,C  13,O  16)          119.3106         0.436548   
     73. A(C  18,C  17,O  21)          109.3738         0.446677   
     74. A(C  13,C  17,O  21)          122.8613         0.419422   
     75. A(C  13,C  17,C  18)          127.7650         0.411226   
     76. A(C  19,C  18,H  23)          125.5774         0.358579   
     77. A(C  17,C  18,H  23)          128.5444         0.356415   
     78. A(C  17,C  18,C  19)          105.8782         0.440628   
     79. A(C  20,C  19,H  24)          126.9187         0.357878   
     80. A(C  18,C  19,H  24)          126.8707         0.358324   
     81. A(C  18,C  19,C  20)          106.2106         0.442885   
     82. A(O  21,C  20,H  25)          124.4455         0.363340   
     83. A(C  19,C  20,H  25)          125.9496         0.357902   
     84. A(C  19,C  20,O  21)          109.6050         0.449444   
     85. A(C  17,O  21,C  20)          108.9324         0.456254   
     86. D(N   7,C   1,C   0,C   5)   -178.3944         0.029164   
     87. D(C   2,C   1,C   0,C   5)      0.8227         0.029164   
     88. D(N   7,C   1,C   0,C  10)      1.1003         0.029164   
     89. D(C   2,C   1,C   0,C  10)   -179.6826         0.029164   
     90. D(C   3,C   2,C   1,C   0)     -0.2209         0.026340   
     91. D(H  29,C   2,C   1,C   0)   -179.9819         0.026340   
     92. D(C   3,C   2,C   1,N   7)    178.8710         0.026340   
     93. D(H  29,C   2,C   1,N   7)     -0.8900         0.026340   
     94. D(H  22,C   3,C   2,H  29)     -0.1545         0.024561   
     95. D(C   4,C   3,C   2,H  29)    179.3906         0.024561   
     96. D(C   4,C   3,C   2,C   1)     -0.3708         0.024561   
     97. D(H  22,C   3,C   2,C   1)   -179.9159         0.024561   
     98. D(H  26,C   4,C   3,C   2)   -179.4054         0.023569   
     99. D(C   5,C   4,C   3,C   2)      0.3642         0.023569   
    100. D(C   5,C   4,C   3,H  22)    179.9092         0.023569   
    101. D(H  26,C   4,C   3,H  22)      0.1397         0.023569   
    102. D(Cl  6,C   5,C   4,H  26)      0.7368         0.023782   
    103. D(C   0,C   5,C   4,H  26)    179.9936         0.023782   
    104. D(Cl  6,C   5,C   0,C  10)     -0.9493         0.023912   
    105. D(C   0,C   5,C   4,C   3)      0.2253         0.023782   
    106. D(C   4,C   5,C   0,C  10)    179.8178         0.023912   
    107. D(Cl  6,C   5,C   4,C   3)   -179.0314         0.023782   
    108. D(Cl  6,C   5,C   0,C   1)    178.4255         0.023912   
    109. D(C   4,C   5,C   0,C   1)     -0.8074         0.023912   
    110. D(H  27,N   7,C   1,C   2)     -0.3707         0.023614   
    111. D(H  27,N   7,C   1,C   0)    178.8047         0.023614   
    112. D(C   8,N   7,C   1,C   2)   -179.0543         0.023614   
    113. D(C   8,N   7,C   1,C   0)      0.1211         0.023614   
    114. D(O   9,C   8,N   7,H  27)     -0.4593         0.035231   
    115. D(O   9,C   8,N   7,C   1)    178.2303         0.035231   
    116. D(C  10,C   8,N   7,C   1)     -1.3140         0.035231   
    117. D(C  10,C   8,N   7,H  27)    179.9965         0.035231   
    118. D(C  12,C  10,C   8,O   9)     64.7432         0.010854   
    119. D(O  11,C  10,C   8,O   9)    -62.7210         0.010854   
    120. D(O  11,C  10,C   8,N   7)    116.8080         0.010854   
    121. D(C   0,C  10,C   8,O   9)   -177.7013         0.010854   
    122. D(C   0,C  10,C   8,N   7)      1.8277         0.010854   
    123. D(C  12,C  10,C   0,C   5)    -62.7607         0.011681   
    124. D(C  12,C  10,C   0,C   1)    117.8118         0.011681   
    125. D(O  11,C  10,C   0,C   5)     60.8146         0.011681   
    126. D(O  11,C  10,C   0,C   1)   -118.6129         0.011681   
    127. D(C  12,C  10,C   8,N   7)   -115.7278         0.010854   
    128. D(C   8,C  10,C   0,C   5)    177.7547         0.011681   
    129. D(C   8,C  10,C   0,C   1)     -1.6729         0.011681   
    130. D(H  28,O  11,C  10,C  12)    -72.4192         0.022108   
    131. D(H  28,O  11,C  10,C   8)     56.0415         0.022108   
    132. D(H  28,O  11,C  10,C   0)    164.4167         0.022108   
    133. D(H  15,C  12,C  10,O  11)   -179.7815         0.009559   
    134. D(H  15,C  12,C  10,C   0)    -57.5777         0.009559   
    135. D(H  14,C  12,C  10,O  11)    -63.7892         0.009559   
    136. D(H  14,C  12,C  10,C   8)    168.6591         0.009559   
    137. D(H  14,C  12,C  10,C   0)     58.4146         0.009559   
    138. D(C  13,C  12,C  10,O  11)     57.8520         0.009559   
    139. D(H  15,C  12,C  10,C   8)     52.6668         0.009559   
    140. D(C  13,C  12,C  10,C   8)    -69.6997         0.009559   
    141. D(C  13,C  12,C  10,C   0)   -179.9442         0.009559   
    142. D(C  17,C  13,C  12,H  15)    119.6672         0.011570   
    143. D(C  17,C  13,C  12,H  14)      3.7769         0.011570   
    144. D(C  17,C  13,C  12,C  10)   -117.3876         0.011570   
    145. D(O  16,C  13,C  12,H  15)    -58.8821         0.011570   
    146. D(O  16,C  13,C  12,H  14)   -174.7724         0.011570   
    147. D(O  16,C  13,C  12,C  10)     64.0631         0.011570   
    148. D(C  18,C  17,C  13,C  12)      1.1631         0.013645   
    149. D(O  21,C  17,C  13,O  16)     -0.3033         0.013645   
    150. D(O  21,C  17,C  13,C  12)   -178.8694         0.013645   
    151. D(C  18,C  17,C  13,O  16)    179.7291         0.013645   
    152. D(H  23,C  18,C  17,O  21)   -179.9221         0.027981   
    153. D(H  23,C  18,C  17,C  13)      0.0489         0.027981   
    154. D(C  19,C  18,C  17,O  21)      0.0705         0.027981   
    155. D(C  19,C  18,C  17,C  13)   -179.9584         0.027981   
    156. D(H  24,C  19,C  18,H  23)     -0.0476         0.030194   
    157. D(H  24,C  19,C  18,C  17)    179.9594         0.030194   
    158. D(C  20,C  19,C  18,H  23)    179.9436         0.030194   
    159. D(C  20,C  19,C  18,C  17)     -0.0494         0.030194   
    160. D(H  25,C  20,C  19,H  24)      0.0035         0.029723   
    161. D(H  25,C  20,C  19,C  18)   -179.9877         0.029723   
    162. D(O  21,C  20,C  19,H  24)   -179.9961         0.029723   
    163. D(O  21,C  20,C  19,C  18)      0.0127         0.029723   
    164. D(C  17,O  21,C  20,H  25)   -179.9677         0.041481   
    165. D(C  17,O  21,C  20,C  19)      0.0318         0.041481   
    166. D(C  20,O  21,C  17,C  18)     -0.0641         0.040957   
    167. D(C  20,O  21,C  17,C  13)    179.9631         0.040957   
    -----------------------------------------------------------------

Number of atoms                         .... 30
Number of degrees of freedom            .... 167

         *************************************************************
         *                GEOMETRY OPTIMIZATION CYCLE   1            *
         *************************************************************
---------------------------------
CARTESIAN COORDINATES (ANGSTROEM)
---------------------------------
  C      0.148300    1.267500    0.348600
  C     -0.642700    0.188400    0.009200
  C     -2.027700    0.289800   -0.104500
  C     -2.623100    1.535400    0.141700
  C     -1.832000    2.643000    0.500900
  C     -0.435200    2.519400    0.610600
  Cl     0.516200    3.917900    1.086200
  N      0.124900   -0.964800   -0.174200
  C      1.412400   -0.638800    0.047700
  O      2.311200   -1.462900   -0.010800
  C      1.599100    0.836800    0.381200
  O      2.108700    1.019200    1.678800
  C      2.432300    1.610600   -0.675800
  C      3.900000    1.236100   -0.709300
  H      2.341300    2.687900   -0.463200
  H      2.000100    1.447600   -1.687400
  O      4.220100    0.101600   -1.025800
  C      4.977300    2.204600   -0.401700
  C      4.843700    3.532700   -0.029900
  C      6.124100    4.005900    0.142800
  C      6.964900    2.948800   -0.129700
  O      6.254000    1.891300   -0.450100
  H     -3.697000    1.643900    0.062300
  H      3.937900    4.106300    0.105100
  H      6.412300    5.007000    0.434200
  H      8.045600    2.970500   -0.090300
  H     -2.307800    3.595400    0.697100
  H     -0.229500   -1.902400   -0.414200
  H      2.956000    0.506300    1.744700
  H     -2.629100   -0.569400   -0.371600

----------------------------
CARTESIAN COORDINATES (A.U.)
----------------------------
  NO LB      ZA    FRAG     MASS         X           Y           Z
   0 C     6.0000    0    12.011    0.280246    2.395228    0.658759
   1 C     6.0000    0    12.011   -1.214527    0.356024    0.017385
   2 C     6.0000    0    12.011   -3.831798    0.547643   -0.197476
   3 C     6.0000    0    12.011   -4.956941    2.901486    0.267774
   4 C     6.0000    0    12.011   -3.461978    4.994546    0.946564
   5 C     6.0000    0    12.011   -0.822409    4.760976    1.153867
   6 Cl   17.0000    0    35.453    0.975477    7.403758    2.052621
   7 N     7.0000    0    14.007    0.236027   -1.823208   -0.329190
   8 C     6.0000    0    12.011    2.669049   -1.207157    0.090140
   9 O     8.0000    0    15.999    4.367535   -2.764480   -0.020409
  10 C     6.0000    0    12.011    3.021861    1.581323    0.720364
  11 O     8.0000    0    15.999    3.984865    1.926009    3.172472
  12 C     6.0000    0    12.011    4.596381    3.043593   -1.277077
  13 C     6.0000    0    12.011    7.369932    2.335890   -1.340383
  14 H     1.0000    0     1.008    4.424416    5.079395   -0.875321
  15 H     1.0000    0     1.008    3.779641    2.735568   -3.188724
  16 O     8.0000    0    15.999    7.974833    0.191996   -1.938481
  17 C     6.0000    0    12.011    9.405734    4.166090   -0.759103
  18 C     6.0000    0    12.011    9.153266    6.675836   -0.056503
  19 C     6.0000    0    12.011   11.572872    7.570054    0.269853
  20 C     6.0000    0    12.011   13.161754    5.572424   -0.245097
  21 O     8.0000    0    15.999   11.818347    3.574039   -0.850566
  22 H     1.0000    0     1.008   -6.986318    3.106521    0.117730
  23 H     1.0000    0     1.008    7.441553    7.759782    0.198610
  24 H     1.0000    0     1.008   12.117491    9.461859    0.820519
  25 H     1.0000    0     1.008   15.203981    5.613431   -0.170642
  26 H     1.0000    0     1.008   -4.361110    6.794321    1.317328
  27 H     1.0000    0     1.008   -0.433692   -3.595015   -0.782725
  28 H     1.0000    0     1.008    5.586030    0.956768    3.297005
  29 H     1.0000    0     1.008   -4.968279   -1.076010   -0.702222

--------------------------------
INTERNAL COORDINATES (ANGSTROEM)
--------------------------------
 C      0   0   0     0.000000000000     0.00000000     0.00000000
 C      1   0   0     1.380336976973     0.00000000     0.00000000
 C      2   1   0     1.393353741876   122.19381565     0.00000000
 C      3   2   1     1.402367626552   118.18597546   359.77911401
 C      4   3   2     1.407707927803   120.33498497   359.62918716
 C      1   2   3     1.405834222090   120.27439435     0.82268938
 Cl     6   1   2     1.757031465285   122.30950654   178.42550904
 N      2   1   3     1.397395992552   111.26255631   180.78288385
 C      8   2   1     1.346540701204   107.68598021     0.12114686
 O      9   8   2     1.220821239986   122.18268877   178.23026332
 C      1   2   3     1.513732436727   109.39538307   180.31739031
 O     11   1   2     1.405961478846   109.29009286   241.38707177
 C     11   1   2     1.552494019312   110.97091890   117.81175161
 C     13  11   1     1.515095967258   114.31481414   180.05578642
 H     13  11   1     1.101841662854   108.15749831    58.41457003
 H     13  11   1     1.112070321517   109.73644119   302.42228151
 O     14  13  11     1.220543530563   119.31058383    64.06314115
 C     14  13  11     1.480940680784   122.57784894   242.61244008
 C     18  14  13     1.385616761590   127.76495502     1.16308670
 C     19  18  14     1.375924303877   105.87816031   180.04163072
 C     20  19  18     1.377919192115   106.21060964   359.95063131
 O     21  20  19     1.313903048174   109.60498836     0.00000000
 H      4   3   2     1.082283613477   119.83099744   180.08413286
 H     19  18  14     1.080608902425   128.54444820     0.04894892
 H     20  19  18     1.081746000686   126.87067776   179.95939891
 H     21  20  19     1.081635678036   125.94955150   180.01226130
 H      5   4   3     1.082564473831   119.43637276   180.59464704
 H      8   2   1     1.030676049979   126.32786686   178.80469845
 H     12  11   1     0.992636141796   107.67552122   164.41668002
 H      3   2   1     1.082242583712   120.97940764   180.01807012

---------------------------
INTERNAL COORDINATES (A.U.)
---------------------------
 C      0   0   0     0.000000000000     0.00000000     0.00000000
 C      1   0   0     2.608458859004     0.00000000     0.00000000
 C      2   1   0     2.633056979820   122.19381565     0.00000000
 C      3   2   1     2.650090753260   118.18597546   359.77911401
 C      4   3   2     2.660182460098   120.33498497   359.62918716
 C      1   2   3     2.656641669445   120.27439435     0.82268938
 Cl     6   1   2     3.320308278070   122.30950654   178.42550904
 N      2   1   3     2.640695726562   111.26255631   180.78288385
 C      8   2   1     2.544593153455   107.68598021     0.12114686
 O      9   8   2     2.307017802047   122.18268877   178.23026332
 C      1   2   3     2.860539745448   109.39538307   180.31739031
 O     11   1   2     2.656882149863   109.29009286   241.38707177
 C     11   1   2     2.933788521051   110.97091890   117.81175161
 C     13  11   1     2.863116444725   114.31481414   180.05578642
 H     13  11   1     2.082178985738   108.15749831    58.41457003
 H     13  11   1     2.101508349330   109.73644119   302.42228151
 O     14  13  11     2.306493007294   119.31058383    64.06314115
 C     14  13  11     2.798572307264   122.57784894   242.61244008
 C     18  14  13     2.618436205977   127.76495502     1.16308670
 C     19  18  14     2.600120115334   105.87816031   180.04163072
 C     20  19  18     2.603889907772   106.21060964   359.95063131
 O     21  20  19     2.482916927573   109.60498836     0.00000000
 H      4   3   2     2.045219628701   119.83099744   180.08413286
 H     19  18  14     2.042054883460   128.54444820     0.04894892
 H     20  19  18     2.044203687761   126.87067776   179.95939891
 H     21  20  19     2.043995208166   125.94955150   180.01226130
 H      5   4   3     2.045750377852   119.43637276   180.59464704
 H      8   2   1     1.947695467252   126.32786686   178.80469845
 H     12  11   1     1.875810458627   107.67552122   164.41668002
 H      3   2   1     2.045142093683   120.97940764   180.01807012

---------------------
BASIS SET INFORMATION
---------------------
There are 5 groups of distinct atoms

 Group   1 Type C   : 7s4p1d contracted to 3s2p1d pattern {511/31/1}
 Group   2 Type Cl  : 10s7p1d contracted to 4s3p1d pattern {5311/511/1}
 Group   3 Type N   : 7s4p1d contracted to 3s2p1d pattern {511/31/1}
 Group   4 Type O   : 7s4p1d contracted to 3s2p1d pattern {511/31/1}
 Group   5 Type H   : 4s1p contracted to 2s1p pattern {31/1}

Atom   0C    basis set group =>   1
Atom   1C    basis set group =>   1
Atom   2C    basis set group =>   1
Atom   3C    basis set group =>   1
Atom   4C    basis set group =>   1
Atom   5C    basis set group =>   1
Atom   6Cl   basis set group =>   2
Atom   7N    basis set group =>   3
Atom   8C    basis set group =>   1
Atom   9O    basis set group =>   4
Atom  10C    basis set group =>   1
Atom  11O    basis set group =>   4
Atom  12C    basis set group =>   1
Atom  13C    basis set group =>   1
Atom  14H    basis set group =>   5
Atom  15H    basis set group =>   5
Atom  16O    basis set group =>   4
Atom  17C    basis set group =>   1
Atom  18C    basis set group =>   1
Atom  19C    basis set group =>   1
Atom  20C    basis set group =>   1
Atom  21O    basis set group =>   4
Atom  22H    basis set group =>   5
Atom  23H    basis set group =>   5
Atom  24H    basis set group =>   5
Atom  25H    basis set group =>   5
Atom  26H    basis set group =>   5
Atom  27H    basis set group =>   5
Atom  28H    basis set group =>   5
Atom  29H    basis set group =>   5
---------------------------------
AUXILIARY/J BASIS SET INFORMATION
---------------------------------
There are 5 groups of distinct atoms

 Group   1 Type C   : 12s5p4d2f1g contracted to 6s4p3d1f1g pattern {711111/2111/211/2/1}
 Group   2 Type Cl  : 14s5p5d2f1g contracted to 8s4p3d1f1g pattern {71111111/2111/311/2/1}
 Group   3 Type N   : 12s5p4d2f1g contracted to 6s4p3d1f1g pattern {711111/2111/211/2/1}
 Group   4 Type O   : 12s5p4d2f1g contracted to 6s4p3d1f1g pattern {711111/2111/211/2/1}
 Group   5 Type H   : 5s2p1d contracted to 3s1p1d pattern {311/2/1}

Atom   0C    basis set group =>   1
Atom   1C    basis set group =>   1
Atom   2C    basis set group =>   1
Atom   3C    basis set group =>   1
Atom   4C    basis set group =>   1
Atom   5C    basis set group =>   1
Atom   6Cl   basis set group =>   2
Atom   7N    basis set group =>   3
Atom   8C    basis set group =>   1
Atom   9O    basis set group =>   4
Atom  10C    basis set group =>   1
Atom  11O    basis set group =>   4
Atom  12C    basis set group =>   1
Atom  13C    basis set group =>   1
Atom  14H    basis set group =>   5
Atom  15H    basis set group =>   5
Atom  16O    basis set group =>   4
Atom  17C    basis set group =>   1
Atom  18C    basis set group =>   1
Atom  19C    basis set group =>   1
Atom  20C    basis set group =>   1
Atom  21O    basis set group =>   4
Atom  22H    basis set group =>   5
Atom  23H    basis set group =>   5
Atom  24H    basis set group =>   5
Atom  25H    basis set group =>   5
Atom  26H    basis set group =>   5
Atom  27H    basis set group =>   5
Atom  28H    basis set group =>   5
Atom  29H    basis set group =>   5
------------------------------------------------------------------------------
                           ORCA GTO INTEGRAL CALCULATION
                           -- RI-GTO INTEGRALS CHOSEN --
------------------------------------------------------------------------------
------------------------------------------------------------------------------
                   ___                                                        
                  /   \      - P O W E R E D   B Y -                         
                 /     \                                                     
                 |  |  |   _    _      __       _____    __    __             
                 |  |  |  | |  | |    /  \     |  _  \  |  |  /  |          
                  \  \/   | |  | |   /    \    | | | |  |  | /  /          
                 / \  \   | |__| |  /  /\  \   | |_| |  |  |/  /          
                |  |  |   |  __  | /  /__\  \  |    /   |      \           
                |  |  |   | |  | | |   __   |  |    \   |  |\   \          
                \     /   | |  | | |  |  |  |  | |\  \  |  | \   \       
                 \___/    |_|  |_| |__|  |__|  |_| \__\ |__|  \__/        
                                                                              
                      - O R C A' S   B I G   F R I E N D -                    
                                      &                                       
                       - I N T E G R A L  F E E D E R -                       
                                                                              
 v1 FN, 2020, v2 2021                                                         
------------------------------------------------------------------------------


Reading SHARK input file input.SHARKINP.tmp ... ok
----------------------
SHARK INTEGRAL PACKAGE
----------------------

Number of atoms                             ...     30
Number of basis functions                   ...    334
Number of shells                            ...    152
Maximum angular momentum                    ...      2
Integral batch strategy                     ... SHARK/LIBINT Hybrid
RI-J (if used) integral strategy            ... SPLIT-RIJ (Revised 2003 algorithm where possible)
Printlevel                                  ...      1
Contraction scheme used                     ... SEGMENTED contraction
Coulomb Range Separation                    ... NOT USED
Exchange Range Separation                   ... NOT USED
Finite Nucleus Model                        ... NOT USED
Auxiliary Coulomb fitting basis             ... AVAILABLE
   # of basis functions in Aux-J            ...   1092
   # of shells in Aux-J                     ...    352
   Maximum angular momentum in Aux-J        ...      4
Auxiliary J/K fitting basis                 ... NOT available
Auxiliary Correlation fitting basis         ... NOT available
Auxiliary 'external' fitting basis          ... NOT available
Integral threshold                          ...     2.500000e-11
Primitive cut-off                           ...     2.500000e-12
Primitive pair pre-selection threshold      ...     2.500000e-12

Calculating pre-screening integrals         ... done (  0.0 sec) Dimension = 152
Organizing shell pair data                  ... done (  0.0 sec)
Shell pair information
Total number of shell pairs                 ...     11628
Shell pairs after pre-screening             ...      8790
Total number of primitive shell pairs       ...     44256
Primitive shell pairs kept                  ...     21455
          la=0 lb=0:   2501 shell pairs
          la=1 lb=0:   3214 shell pairs
          la=1 lb=1:   1063 shell pairs
          la=2 lb=0:   1130 shell pairs
          la=2 lb=1:    747 shell pairs
          la=2 lb=2:    135 shell pairs

Calculating one electron integrals          ... done (  0.0 sec)
Calculating RI/J V-Matrix + Cholesky decomp.... done (  0.0 sec)
Calculating Nuclear repulsion               ... done (  0.0 sec) ENN=   1650.971365090518 Eh

SHARK setup successfully completed in   0.2 seconds

Maximum memory used throughout the entire GTOINT-calculation: 63.9 MB
-------------------------------------------------------------------------------
                                 ORCA SCF
-------------------------------------------------------------------------------

------------
SCF SETTINGS
------------
Hamiltonian:
 Density Functional     Method          .... DFT(GTOs)
 Exchange Functional    Exchange        .... B88
   X-Alpha parameter    XAlpha          ....  0.666667
   Becke's b parameter  XBeta           ....  0.004200
 Correlation Functional Correlation     .... P86
 LDA part of GGA corr.  LDAOpt          .... PW91-LDA
 Gradients option       PostSCFGGA      .... off
   Density functional embedding theory  .... OFF
   NL short-range parameter             ....  4.400000
 RI-approximation to the Coulomb term is turned on
   Number of AuxJ basis functions       .... 1092


General Settings:
 Integral files         IntName         .... input
 Hartree-Fock type      HFTyp           .... RHF
 Total Charge           Charge          ....    0
 Multiplicity           Mult            ....    1
 Number of Electrons    NEL             ....  150
 Basis Dimension        Dim             ....  334
 Nuclear Repulsion      ENuc            ....   1650.9713650905 Eh

Convergence Acceleration:
 DIIS                   CNVDIIS         .... on
   Start iteration      DIISMaxIt       ....    12
   Startup error        DIISStart       ....  0.200000
   # of expansion vecs  DIISMaxEq       ....     5
   Bias factor          DIISBfac        ....   1.050
   Max. coefficient     DIISMaxC        ....  10.000
 Trust-Rad. Augm. Hess. CNVTRAH         .... auto
   Auto Start mean grad. ratio tolernc. ....  1.125000
   Auto Start start iteration           ....    20
   Auto Start num. interpolation iter.  ....    10
   Max. Number of Micro iterations      ....    16
   Max. Number of Macro iterations      .... Maxiter - #DIIS iter
   Number of Davidson start vectors     ....     2
   Converg. threshold I  (grad. norm)   ....   1.000e-05
   Converg. threshold II (energy diff.) ....   1.000e-08
   Grad. Scal. Fac. for Micro threshold ....   0.100
   Minimum threshold for Micro iter.    ....   0.010
   NR start threshold (gradient norm)   ....   0.001
   Initial trust radius                 ....   0.400
   Minimum AH scaling param. (alpha)    ....   1.000
   Maximum AH scaling param. (alpha)    .... 1000.000
   Orbital update algorithm             .... Taylor
   White noise on init. David. guess    .... on
   Maximum white noise                  ....   0.010
   Quad. conv. algorithm                .... NR
 SOSCF                  CNVSOSCF        .... on
   Start iteration      SOSCFMaxIt      ....   150
   Startup grad/error   SOSCFStart      ....  0.003300
 Level Shifting         CNVShift        .... on
   Level shift para.    LevelShift      ....    0.2500
   Turn off err/grad.   ShiftErr        ....    0.0010
 Zerner damping         CNVZerner       .... off
 Static damping         CNVDamp         .... on
   Fraction old density DampFac         ....    0.7000
   Max. Damping (<1)    DampMax         ....    0.9800
   Min. Damping (>=0)   DampMin         ....    0.0000
   Turn off err/grad.   DampErr         ....    0.1000
 Fernandez-Rico         CNVRico         .... off

SCF Procedure:
 Maximum # iterations   MaxIter         ....   125
 SCF integral mode      SCFMode         .... Direct
   Integral package                     .... SHARK and LIBINT hybrid scheme
 Reset frequency        DirectResetFreq ....    20
 Integral Threshold     Thresh          ....  2.500e-11 Eh
 Primitive CutOff       TCut            ....  2.500e-12 Eh

Convergence Tolerance:
 Convergence Check Mode ConvCheckMode   .... Total+1el-Energy
 Convergence forced     ConvForced      .... 0
 Energy Change          TolE            ....  1.000e-08 Eh
 1-El. energy change                    ....  1.000e-05 Eh
 Orbital Gradient       TolG            ....  1.000e-05
 Orbital Rotation angle TolX            ....  1.000e-05
 DIIS Error             TolErr          ....  5.000e-07


Diagonalization of the overlap matrix:
Smallest eigenvalue                        ... 2.001e-04
Time for diagonalization                   ...    0.008 sec
Threshold for overlap eigenvalues          ... 1.000e-08
Number of eigenvalues below threshold      ... 0
Time for construction of square roots      ...    0.003 sec
Total time needed                          ...    0.011 sec

Time for model grid setup =    0.326 sec

------------------------------
INITIAL GUESS: MODEL POTENTIAL
------------------------------
Loading Hartree-Fock densities                     ... done
Calculating cut-offs                               ... done
Initializing the effective Hamiltonian             ... done
Setting up the integral package (SHARK)            ... done
Starting the Coulomb interaction                   ... done (   0.3 sec)
Reading the grid                                   ... done
Mapping shells                                     ... done
Starting the XC term evaluation                    ... done (   0.3 sec)
  promolecular density results
     # of electrons  =    149.990571057
     EX              =   -141.946219954
     EC              =     -5.711951471
     EX+EC           =   -147.658171425
Transforming the Hamiltonian                       ... done (   0.0 sec)
Diagonalizing the Hamiltonian                      ... done (   0.0 sec)
Back transforming the eigenvectors                 ... done (   0.0 sec)
Now organizing SCF variables                       ... done
                      ------------------
                      INITIAL GUESS DONE (   1.0 sec)
                      ------------------
-------------------
DFT GRID GENERATION
-------------------

General Integration Accuracy     IntAcc      ... 4.388
Radial Grid Type                 RadialGrid  ... OptM3 with GC (2021)
Angular Grid (max. ang.)         AngularGrid ... 4 (Lebedev-302)
Angular grid pruning method      GridPruning ... 4 (adaptive)
Weight generation scheme         WeightScheme... Becke
Basis function cutoff            BFCut       ... 1.0000e-11
Integration weight cutoff        WCut        ... 1.0000e-14
Angular grids for H and He will be reduced by one unit
Partially contracted basis set               ... off
Rotationally invariant grid construction     ... off

Total number of grid points                  ...   152947
Total number of batches                      ...     2404
Average number of points per batch           ...       63
Average number of grid points per atom       ...     5098
Time for grid setup =    1.226 sec

--------------
SCF ITERATIONS
--------------
ITER       Energy         Delta-E        Max-DP      RMS-DP      [F,P]     Damp
               ***  Starting incremental Fock matrix formation  ***
  0  -1354.1710847147   0.000000000000 0.25483743  0.00288220  0.2591917 0.7000
  1  -1354.3881234428  -0.217038728082 0.12487931  0.00158624  0.0749380 0.7000
                               ***Turning on DIIS***
  2  -1354.4487595168  -0.060636074056 0.06625915  0.00181045  0.0344388 0.0000
  3  -1354.5717369048  -0.122977387990 0.08558020  0.00112391  0.0492784 0.0000
  4  -1354.5919020694  -0.020165164627 0.02124506  0.00038847  0.0341026 0.0000
  5  -1354.5966063910  -0.004704321614 0.00754489  0.00011860  0.0044533 0.0000
                      *** Initiating the SOSCF procedure ***
                           *** Shutting down DIIS ***
                      *** Re-Reading the Fockian *** 
                      *** Removing any level shift *** 
ITER      Energy       Delta-E        Grad      Rot      Max-DP    RMS-DP
  6  -1354.59675887  -0.0001524784  0.000401  0.000401  0.004899  0.000047
               *** Restarting incremental Fock matrix formation ***
  7  -1354.59678780  -0.0000289292  0.000286  0.001097  0.002735  0.000035
  8  -1354.59677634   0.0000114609  0.000769  0.000896  0.001264  0.000021
  9  -1354.59679142  -0.0000150841  0.000067  0.000462  0.000526  0.000012
 10  -1354.59679003   0.0000013936  0.000181  0.000303  0.000506  0.000008
 11  -1354.59679166  -0.0000016304  0.000036  0.000145  0.000198  0.000005
 12  -1354.59679153   0.0000001275  0.000070  0.000091  0.000131  0.000003
 13  -1354.59679172  -0.0000001873  0.000006  0.000034  0.000042  0.000001
 14  -1354.59679171   0.0000000079  0.000013  0.000028  0.000034  0.000001
                  ***Gradient check signals convergence***
              ***Rediagonalizing the Fockian in SOSCF/NRSCF***

               *****************************************************
               *                     SUCCESS                       *
               *           SCF CONVERGED AFTER  15 CYCLES          *
               *****************************************************


----------------
TOTAL SCF ENERGY
----------------

Total Energy       :        -1354.59679172 Eh          -36860.45265 eV

Components:
Nuclear Repulsion  :         1650.97136509 Eh           44925.21480 eV
Electronic Energy  :        -3005.56815681 Eh          -81785.66745 eV
One Electron Energy:        -5135.11425506 Eh         -139733.56280 eV
Two Electron Energy:         2129.54609824 Eh           57947.89535 eV

Virial components:
Potential Energy   :        -2699.70227878 Eh          -73462.63377 eV
Kinetic Energy     :         1345.10548705 Eh           36602.18112 eV
Virial Ratio       :            2.00705618


DFT components:
N(Alpha)           :       75.000085781929 electrons
N(Beta)            :       75.000085781929 electrons
N(Total)           :      150.000171563858 electrons
E(X)               :     -143.546885934403 Eh       
E(C)               :       -5.718646126233 Eh       
E(XC)              :     -149.265532060636 Eh       
DFET-embed. en.    :        0.000000000000 Eh       

---------------
SCF CONVERGENCE
---------------

  Last Energy change         ...   -1.1865e-08  Tolerance :   1.0000e-08
  Last MAX-Density change    ...    1.5713e-05  Tolerance :   1.0000e-07
  Last RMS-Density change    ...    2.8536e-07  Tolerance :   5.0000e-09
  Last Orbital Gradient      ...    2.4946e-06  Tolerance :   1.0000e-05
  Last Orbital Rotation      ...    1.3655e-05  Tolerance :   1.0000e-05

             **** THE GBW FILE WAS UPDATED (input.gbw) ****
             **** DENSITY input.scfp WAS UPDATED ****
             **** ENERGY FILE WAS UPDATED (input.en.tmp) ****
             **** THE GBW FILE WAS UPDATED (input.gbw) ****
             **** DENSITY input.scfp WAS UPDATED ****
----------------
ORBITAL ENERGIES
----------------

  NO   OCC          E(Eh)            E(eV) 
   0   2.0000    -100.713831     -2740.5627 
   1   2.0000     -18.869909      -513.4763 
   2   2.0000     -18.792387      -511.3668 
   3   2.0000     -18.752188      -510.2730 
   4   2.0000     -18.749431      -510.1980 
   5   2.0000     -14.068054      -382.8112 
   6   2.0000     -10.006628      -272.2942 
   7   2.0000      -9.993981      -271.9500 
   8   2.0000      -9.991818      -271.8912 
   9   2.0000      -9.986921      -271.7579 
  10   2.0000      -9.978310      -271.5236 
  11   2.0000      -9.973884      -271.4032 
  12   2.0000      -9.970685      -271.3161 
  13   2.0000      -9.938641      -270.4442 
  14   2.0000      -9.936160      -270.3767 
  15   2.0000      -9.933287      -270.2985 
  16   2.0000      -9.932115      -270.2666 
  17   2.0000      -9.929229      -270.1880 
  18   2.0000      -9.924681      -270.0643 
  19   2.0000      -9.920891      -269.9612 
  20   2.0000      -9.198204      -250.2959 
  21   2.0000      -7.029228      -191.2750 
  22   2.0000      -7.018006      -190.9697 
  23   2.0000      -7.017264      -190.9495 
  24   2.0000      -1.065491       -28.9935 
  25   2.0000      -0.965815       -26.2812 
  26   2.0000      -0.934536       -25.4300 
  27   2.0000      -0.931238       -25.3403 
  28   2.0000      -0.885610       -24.0987 
  29   2.0000      -0.815823       -22.1997 
  30   2.0000      -0.765205       -20.8223 
  31   2.0000      -0.746366       -20.3096 
  32   2.0000      -0.730933       -19.8897 
  33   2.0000      -0.709880       -19.3168 
  34   2.0000      -0.677442       -18.4341 
  35   2.0000      -0.674260       -18.3475 
  36   2.0000      -0.634671       -17.2703 
  37   2.0000      -0.581732       -15.8297 
  38   2.0000      -0.568910       -15.4808 
  39   2.0000      -0.561654       -15.2834 
  40   2.0000      -0.545144       -14.8341 
  41   2.0000      -0.539450       -14.6792 
  42   2.0000      -0.513137       -13.9632 
  43   2.0000      -0.493310       -13.4236 
  44   2.0000      -0.483739       -13.1632 
  45   2.0000      -0.471766       -12.8374 
  46   2.0000      -0.452663       -12.3176 
  47   2.0000      -0.446571       -12.1518 
  48   2.0000      -0.435487       -11.8502 
  49   2.0000      -0.429295       -11.6817 
  50   2.0000      -0.419152       -11.4057 
  51   2.0000      -0.413178       -11.2431 
  52   2.0000      -0.405166       -11.0251 
  53   2.0000      -0.392937       -10.6924 
  54   2.0000      -0.387126       -10.5342 
  55   2.0000      -0.378269       -10.2932 
  56   2.0000      -0.368237       -10.0202 
  57   2.0000      -0.362286        -9.8583 
  58   2.0000      -0.359233        -9.7752 
  59   2.0000      -0.347998        -9.4695 
  60   2.0000      -0.341058        -9.2807 
  61   2.0000      -0.339636        -9.2420 
  62   2.0000      -0.330675        -8.9981 
  63   2.0000      -0.326814        -8.8931 
  64   2.0000      -0.316221        -8.6048 
  65   2.0000      -0.305253        -8.3064 
  66   2.0000      -0.278476        -7.5777 
  67   2.0000      -0.277655        -7.5554 
  68   2.0000      -0.273033        -7.4296 
  69   2.0000      -0.249868        -6.7993 
  70   2.0000      -0.235492        -6.4081 
  71   2.0000      -0.221959        -6.0398 
  72   2.0000      -0.214774        -5.8443 
  73   2.0000      -0.210135        -5.7181 
  74   2.0000      -0.187263        -5.0957 
  75   0.0000      -0.088385        -2.4051 
  76   0.0000      -0.070101        -1.9075 
  77   0.0000      -0.054020        -1.4700 
  78   0.0000      -0.015151        -0.4123 
  79   0.0000      -0.009057        -0.2465 
  80   0.0000      -0.002851        -0.0776 
  81   0.0000       0.028692         0.7807 
  82   0.0000       0.034113         0.9283 
  83   0.0000       0.047644         1.2965 
  84   0.0000       0.056097         1.5265 
  85   0.0000       0.059158         1.6098 
  86   0.0000       0.069887         1.9017 
  87   0.0000       0.082591         2.2474 
  88   0.0000       0.090233         2.4554 
  89   0.0000       0.092836         2.5262 
  90   0.0000       0.097601         2.6559 
  91   0.0000       0.116112         3.1596 
  92   0.0000       0.124420         3.3856 
  93   0.0000       0.131071         3.5666 
  94   0.0000       0.149815         4.0767 
  95   0.0000       0.158674         4.3177 
  96   0.0000       0.169948         4.6245 
  97   0.0000       0.175517         4.7761 
  98   0.0000       0.186260         5.0684 
  99   0.0000       0.209106         5.6901 
 100   0.0000       0.212622         5.7857 
 101   0.0000       0.221666         6.0318 
 102   0.0000       0.225450         6.1348 
 103   0.0000       0.246845         6.7170 
 104   0.0000       0.254935         6.9371 
 105   0.0000       0.267706         7.2846 
 106   0.0000       0.273662         7.4467 
 107   0.0000       0.282993         7.7006 
 108   0.0000       0.301674         8.2090 
 109   0.0000       0.310457         8.4480 
 110   0.0000       0.325616         8.8605 
 111   0.0000       0.331429         9.0186 
 112   0.0000       0.341537         9.2937 
 113   0.0000       0.348218         9.4755 
 114   0.0000       0.361616         9.8401 
 115   0.0000       0.371488        10.1087 
 116   0.0000       0.382071        10.3967 
 117   0.0000       0.388950        10.5839 
 118   0.0000       0.394137        10.7250 
 119   0.0000       0.402356        10.9487 
 120   0.0000       0.409645        11.1470 
 121   0.0000       0.412549        11.2260 
 122   0.0000       0.420031        11.4296 
 123   0.0000       0.434912        11.8346 
 124   0.0000       0.438417        11.9299 
 125   0.0000       0.445563        12.1244 
 126   0.0000       0.464397        12.6369 
 127   0.0000       0.472240        12.8503 
 128   0.0000       0.476472        12.9655 
 129   0.0000       0.483539        13.1578 
 130   0.0000       0.489022        13.3070 
 131   0.0000       0.490127        13.3370 
 132   0.0000       0.492578        13.4037 
 133   0.0000       0.494343        13.4518 
 134   0.0000       0.513321        13.9682 
 135   0.0000       0.525549        14.3009 
 136   0.0000       0.529886        14.4189 
 137   0.0000       0.541753        14.7418 
 138   0.0000       0.550220        14.9722 
 139   0.0000       0.555712        15.1217 
 140   0.0000       0.565752        15.3949 
 141   0.0000       0.571316        15.5463 
 142   0.0000       0.582970        15.8634 
 143   0.0000       0.587252        15.9799 
 144   0.0000       0.598040        16.2735 
 145   0.0000       0.599681        16.3182 
 146   0.0000       0.610783        16.6202 
 147   0.0000       0.614763        16.7285 
 148   0.0000       0.618245        16.8233 
 149   0.0000       0.626188        17.0395 
 150   0.0000       0.631918        17.1954 
 151   0.0000       0.638862        17.3843 
 152   0.0000       0.640664        17.4334 
 153   0.0000       0.642750        17.4901 
 154   0.0000       0.652235        17.7482 
 155   0.0000       0.662709        18.0332 
 156   0.0000       0.667275        18.1575 
 157   0.0000       0.677206        18.4277 
 158   0.0000       0.678451        18.4616 
 159   0.0000       0.682737        18.5782 
 160   0.0000       0.701641        19.0926 
 161   0.0000       0.703365        19.1395 
 162   0.0000       0.720032        19.5931 
 163   0.0000       0.730173        19.8690 
 164   0.0000       0.735681        20.0189 
 165   0.0000       0.750289        20.4164 
 166   0.0000       0.754975        20.5439 
 167   0.0000       0.761311        20.7163 
 168   0.0000       0.765801        20.8385 
 169   0.0000       0.789857        21.4931 
 170   0.0000       0.799275        21.7494 
 171   0.0000       0.820761        22.3340 
 172   0.0000       0.832744        22.6601 
 173   0.0000       0.842019        22.9125 
 174   0.0000       0.862595        23.4724 
 175   0.0000       0.875520        23.8241 
 176   0.0000       0.893798        24.3215 
 177   0.0000       0.906854        24.6767 
 178   0.0000       0.923757        25.1367 
 179   0.0000       0.932793        25.3826 
 180   0.0000       0.947386        25.7797 
 181   0.0000       0.965113        26.2621 
 182   0.0000       0.969668        26.3860 
 183   0.0000       0.984849        26.7991 
 184   0.0000       1.001282        27.2463 
 185   0.0000       1.024638        27.8818 
 186   0.0000       1.031403        28.0659 
 187   0.0000       1.043081        28.3837 
 188   0.0000       1.050582        28.5878 
 189   0.0000       1.061705        28.8905 
 190   0.0000       1.070749        29.1366 
 191   0.0000       1.088724        29.6257 
 192   0.0000       1.116962        30.3941 
 193   0.0000       1.124122        30.5889 
 194   0.0000       1.128897        30.7188 
 195   0.0000       1.131560        30.7913 
 196   0.0000       1.164288        31.6819 
 197   0.0000       1.169343        31.8194 
 198   0.0000       1.180091        32.1119 
 199   0.0000       1.184303        32.2265 
 200   0.0000       1.194707        32.5096 
 201   0.0000       1.204280        32.7701 
 202   0.0000       1.216048        33.0903 
 203   0.0000       1.231545        33.5121 
 204   0.0000       1.243626        33.8408 
 205   0.0000       1.273445        34.6522 
 206   0.0000       1.288478        35.0613 
 207   0.0000       1.293538        35.1990 
 208   0.0000       1.323750        36.0211 
 209   0.0000       1.328678        36.1552 
 210   0.0000       1.352018        36.7903 
 211   0.0000       1.371317        37.3154 
 212   0.0000       1.383317        37.6420 
 213   0.0000       1.390264        37.8310 
 214   0.0000       1.409485        38.3540 
 215   0.0000       1.420998        38.6673 
 216   0.0000       1.436824        39.0980 
 217   0.0000       1.442330        39.2478 
 218   0.0000       1.459489        39.7147 
 219   0.0000       1.478821        40.2408 
 220   0.0000       1.514255        41.2050 
 221   0.0000       1.524969        41.4965 
 222   0.0000       1.559178        42.4274 
 223   0.0000       1.575843        42.8809 
 224   0.0000       1.583919        43.1006 
 225   0.0000       1.598682        43.5023 
 226   0.0000       1.605932        43.6996 
 227   0.0000       1.615452        43.9587 
 228   0.0000       1.622644        44.1544 
 229   0.0000       1.628474        44.3130 
 230   0.0000       1.642232        44.6874 
 231   0.0000       1.650650        44.9165 
 232   0.0000       1.658255        45.1234 
 233   0.0000       1.681253        45.7492 
 234   0.0000       1.684175        45.8287 
 235   0.0000       1.692315        46.0502 
 236   0.0000       1.717487        46.7352 
 237   0.0000       1.723464        46.8978 
 238   0.0000       1.728833        47.0440 
 239   0.0000       1.744190        47.4618 
 240   0.0000       1.747622        47.5552 
 241   0.0000       1.757898        47.8348 
 242   0.0000       1.769599        48.1532 
 243   0.0000       1.772209        48.2243 
 244   0.0000       1.786934        48.6250 
 245   0.0000       1.800004        48.9806 
 246   0.0000       1.826215        49.6938 
 247   0.0000       1.828321        49.7512 
 248   0.0000       1.833978        49.9051 
 249   0.0000       1.861029        50.6412 
 250   0.0000       1.864066        50.7238 
 251   0.0000       1.866019        50.7769 
 252   0.0000       1.869946        50.8838 
 253   0.0000       1.886087        51.3230 
 254   0.0000       1.887786        51.3693 
 255   0.0000       1.910854        51.9970 
 256   0.0000       1.933097        52.6022 
 257   0.0000       1.940780        52.8113 
 258   0.0000       1.951946        53.1151 
 259   0.0000       1.974433        53.7271 
 260   0.0000       1.983415        53.9715 
 261   0.0000       1.994885        54.2836 
 262   0.0000       2.014308        54.8121 
 263   0.0000       2.022826        55.0439 
 264   0.0000       2.057167        55.9784 
 265   0.0000       2.072130        56.3855 
 266   0.0000       2.081403        56.6379 
 267   0.0000       2.086621        56.7798 
 268   0.0000       2.101442        57.1831 
 269   0.0000       2.115614        57.5688 
 270   0.0000       2.117097        57.6091 
 271   0.0000       2.153436        58.5980 
 272   0.0000       2.171863        59.0994 
 273   0.0000       2.180234        59.3272 
 274   0.0000       2.188331        59.5475 
 275   0.0000       2.199557        59.8530 
 276   0.0000       2.212950        60.2174 
 277   0.0000       2.238809        60.9211 
 278   0.0000       2.244346        61.0718 
 279   0.0000       2.261436        61.5368 
 280   0.0000       2.276790        61.9546 
 281   0.0000       2.278980        62.0142 
 282   0.0000       2.319233        63.1095 
 283   0.0000       2.342495        63.7425 
 284   0.0000       2.367753        64.4298 
 285   0.0000       2.400776        65.3284 
 286   0.0000       2.437250        66.3210 
 287   0.0000       2.442092        66.4527 
 288   0.0000       2.465899        67.1005 
 289   0.0000       2.486264        67.6547 
 290   0.0000       2.493235        67.8444 
 291   0.0000       2.521508        68.6137 
 292   0.0000       2.530509        68.8586 
 293   0.0000       2.563685        69.7614 
 294   0.0000       2.571661        69.9785 
 295   0.0000       2.597108        70.6709 
 296   0.0000       2.612274        71.0836 
 297   0.0000       2.621948        71.3468 
 298   0.0000       2.625527        71.4442 
 299   0.0000       2.633649        71.6652 
 300   0.0000       2.642870        71.9161 
 301   0.0000       2.660373        72.3924 
 302   0.0000       2.682512        72.9949 
 303   0.0000       2.691154        73.2300 
 304   0.0000       2.713893        73.8488 
 305   0.0000       2.724722        74.1435 
 306   0.0000       2.746010        74.7227 
 307   0.0000       2.811948        76.5170 
 308   0.0000       2.822631        76.8077 
 309   0.0000       2.836637        77.1888 
 310   0.0000       2.849177        77.5301 
 311   0.0000       2.873521        78.1925 
 312   0.0000       2.885291        78.5128 
 313   0.0000       2.892071        78.6972 
 314   0.0000       2.915054        79.3227 
 315   0.0000       2.955263        80.4168 
 316   0.0000       2.970496        80.8313 
 317   0.0000       2.985352        81.2355 
 318   0.0000       3.017431        82.1085 
 319   0.0000       3.060435        83.2787 
 320   0.0000       3.073043        83.6218 
 321   0.0000       3.082096        83.8681 
 322   0.0000       3.099826        84.3506 
 323   0.0000       3.251736        88.4842 
 324   0.0000       3.288875        89.4949 
 325   0.0000       3.310311        90.0781 
 326   0.0000       3.384687        92.1020 
 327   0.0000       3.391473        92.2867 
 328   0.0000       3.448723        93.8445 
 329   0.0000       3.480063        94.6973 
 330   0.0000       3.514218        95.6267 
 331   0.0000       3.590396        97.6997 
 332   0.0000       3.608168        98.1833 
 333   0.0000       3.642940        99.1294 

                    ********************************
                    * MULLIKEN POPULATION ANALYSIS *
                    ********************************

-----------------------
MULLIKEN ATOMIC CHARGES
-----------------------
   0 C :    0.043258
   1 C :    0.110545
   2 C :   -0.069669
   3 C :    0.014586
   4 C :    0.000816
   5 C :    0.005465
   6 Cl:   -0.060961
   7 N :   -0.035999
   8 C :    0.076140
   9 O :   -0.148032
  10 C :   -0.088616
  11 O :   -0.248841
  12 C :    0.167155
  13 C :   -0.039690
  14 H :    0.005492
  15 H :    0.038014
  16 O :   -0.141619
  17 C :    0.075769
  18 C :   -0.056262
  19 C :   -0.025007
  20 C :    0.112798
  21 O :   -0.079304
  22 H :    0.006173
  23 H :    0.009958
  24 H :    0.005571
  25 H :    0.030575
  26 H :   -0.010733
  27 H :    0.138856
  28 H :    0.189993
  29 H :   -0.026432
Sum of atomic charges:   -0.0000000

--------------------------------
MULLIKEN REDUCED ORBITAL CHARGES
--------------------------------
  0 C s       :     3.090233  s :     3.090233
      pz      :     1.027058  p :     2.829257
      px      :     0.937047
      py      :     0.865153
      dz2     :     0.003856  d :     0.037252
      dxz     :     0.004468
      dyz     :     0.006344
      dx2y2   :     0.009486
      dxy     :     0.013097
  1 C s       :     2.991688  s :     2.991688
      pz      :     1.008559  p :     2.838196
      px      :     0.841014
      py      :     0.988623
      dz2     :     0.005206  d :     0.059570
      dxz     :     0.010590
      dyz     :     0.010366
      dx2y2   :     0.014646
      dxy     :     0.018763
  2 C s       :     3.293080  s :     3.293080
      pz      :     1.026521  p :     2.745513
      px      :     0.939787
      py      :     0.779205
      dz2     :     0.002504  d :     0.031076
      dxz     :     0.005067
      dyz     :     0.003709
      dx2y2   :     0.010099
      dxy     :     0.009697
  3 C s       :     3.169834  s :     3.169834
      pz      :     0.972492  p :     2.782677
      px      :     0.856707
      py      :     0.953478
      dz2     :     0.003110  d :     0.032904
      dxz     :     0.002571
      dyz     :     0.006769
      dx2y2   :     0.011505
      dxy     :     0.008948
  4 C s       :     3.258053  s :     3.258053
      pz      :     1.007628  p :     2.710279
      px      :     0.907808
      py      :     0.794843
      dz2     :     0.002768  d :     0.030852
      dxz     :     0.005591
      dyz     :     0.003059
      dx2y2   :     0.010221
      dxy     :     0.009213
  5 C s       :     3.022765  s :     3.022765
      pz      :     1.030004  p :     2.922741
      px      :     0.924184
      py      :     0.968553
      dz2     :     0.004115  d :     0.049028
      dxz     :     0.007822
      dyz     :     0.007661
      dx2y2   :     0.013892
      dxy     :     0.015537
  6 Cls       :     5.937431  s :     5.937431
      pz      :     3.853220  p :    11.088383
      px      :     3.737045
      py      :     3.498118
      dz2     :     0.004870  d :     0.035148
      dxz     :     0.004045
      dyz     :     0.007463
      dx2y2   :     0.006411
      dxy     :     0.012358
  7 N s       :     3.343695  s :     3.343695
      pz      :     1.560495  p :     3.671416
      px      :     1.076815
      py      :     1.034106
      dz2     :     0.002140  d :     0.020888
      dxz     :     0.003634
      dyz     :     0.002549
      dx2y2   :     0.006248
      dxy     :     0.006318
  8 C s       :     3.021764  s :     3.021764
      pz      :     0.880419  p :     2.790363
      px      :     0.871939
      py      :     1.038005
      dz2     :     0.006689  d :     0.111733
      dxz     :     0.022997
      dyz     :     0.009474
      dx2y2   :     0.047246
      dxy     :     0.025328
  9 O s       :     3.722351  s :     3.722351
      pz      :     1.375822  p :     4.408125
      px      :     1.502646
      py      :     1.529656
      dz2     :     0.002000  d :     0.017556
      dxz     :     0.003109
      dyz     :     0.002404
      dx2y2   :     0.003964
      dxy     :     0.006080
 10 C s       :     3.097685  s :     3.097685
      pz      :     0.877945  p :     2.913374
      px      :     1.009775
      py      :     1.025654
      dz2     :     0.021723  d :     0.077557
      dxz     :     0.017834
      dyz     :     0.016334
      dx2y2   :     0.013628
      dxy     :     0.008038
 11 O s       :     3.732986  s :     3.732986
      pz      :     1.405123  p :     4.503225
      px      :     1.387024
      py      :     1.711078
      dz2     :     0.004865  d :     0.012629
      dxz     :     0.001766
      dyz     :     0.002277
      dx2y2   :     0.001070
      dxy     :     0.002651
 12 C s       :     2.916606  s :     2.916606
      pz      :     0.971933  p :     2.887785
      px      :     0.954952
      py      :     0.960900
      dz2     :     0.006689  d :     0.028454
      dxz     :     0.005689
      dyz     :     0.003173
      dx2y2   :     0.009182
      dxy     :     0.003721
 13 C s       :     3.156545  s :     3.156545
      pz      :     0.870707  p :     2.792055
      px      :     0.982765
      py      :     0.938582
      dz2     :     0.006787  d :     0.091090
      dxz     :     0.008365
      dyz     :     0.016431
      dx2y2   :     0.023759
      dxy     :     0.035748
 14 H s       :     0.970954  s :     0.970954
      pz      :     0.005304  p :     0.023553
      px      :     0.004729
      py      :     0.013520
 15 H s       :     0.940026  s :     0.940026
      pz      :     0.011568  p :     0.021960
      px      :     0.005195
      py      :     0.005197
 16 O s       :     3.739922  s :     3.739922
      pz      :     1.288340  p :     4.384037
      px      :     1.751038
      py      :     1.344659
      dz2     :     0.002313  d :     0.017660
      dxz     :     0.000691
      dyz     :     0.005269
      dx2y2   :     0.005135
      dxy     :     0.004252
 17 C s       :     3.092609  s :     3.092609
      pz      :     1.071983  p :     2.761276
      px      :     0.795437
      py      :     0.893855
      dz2     :     0.006644  d :     0.070345
      dxz     :     0.012991
      dyz     :     0.007142
      dx2y2   :     0.022902
      dxy     :     0.020666
 18 C s       :     3.236439  s :     3.236439
      pz      :     1.006203  p :     2.786078
      px      :     0.837220
      py      :     0.942655
      dz2     :     0.003373  d :     0.033744
      dxz     :     0.005181
      dyz     :     0.005238
      dx2y2   :     0.011282
      dxy     :     0.008671
 19 C s       :     3.180437  s :     3.180437
      pz      :     1.027267  p :     2.810791
      px      :     0.945069
      py      :     0.838455
      dz2     :     0.002854  d :     0.033779
      dxz     :     0.006663
      dyz     :     0.004089
      dx2y2   :     0.008549
      dxy     :     0.011624
 20 C s       :     3.145665  s :     3.145665
      pz      :     1.022772  p :     2.675924
      px      :     0.836345
      py      :     0.816807
      dz2     :     0.006516  d :     0.065613
      dxz     :     0.006396
      dyz     :     0.012024
      dx2y2   :     0.020253
      dxy     :     0.020424
 21 O s       :     3.684355  s :     3.684355
      pz      :     1.597247  p :     4.371654
      px      :     1.239448
      py      :     1.534959
      dz2     :     0.002626  d :     0.023295
      dxz     :     0.004801
      dyz     :     0.003644
      dx2y2   :     0.005993
      dxy     :     0.006230
 22 H s       :     0.971173  s :     0.971173
      pz      :     0.005076  p :     0.022654
      px      :     0.013660
      py      :     0.003917
 23 H s       :     0.966810  s :     0.966810
      pz      :     0.005296  p :     0.023232
      px      :     0.011194
      py      :     0.006741
 24 H s       :     0.971349  s :     0.971349
      pz      :     0.005960  p :     0.023080
      px      :     0.004467
      py      :     0.012652
 25 H s       :     0.946240  s :     0.946240
      pz      :     0.005773  p :     0.023185
      px      :     0.014645
      py      :     0.002766
 26 H s       :     0.987845  s :     0.987845
      pz      :     0.005662  p :     0.022889
      px      :     0.005494
      py      :     0.011732
 27 H s       :     0.820073  s :     0.820073
      pz      :     0.011602  p :     0.041071
      px      :     0.007644
      py      :     0.021825
 28 H s       :     0.745280  s :     0.745280
      pz      :     0.013408  p :     0.064727
      px      :     0.029287
      py      :     0.022032
 29 H s       :     1.003671  s :     1.003671
      pz      :     0.006105  p :     0.022761
      px      :     0.006870
      py      :     0.009786


                     *******************************
                     * LOEWDIN POPULATION ANALYSIS *
                     *******************************

----------------------
LOEWDIN ATOMIC CHARGES
----------------------
   0 C :   -0.065215
   1 C :    0.027453
   2 C :   -0.060065
   3 C :   -0.008960
   4 C :   -0.059030
   5 C :   -0.102420
   6 Cl:    0.139680
   7 N :    0.046805
   8 C :    0.023632
   9 O :   -0.153928
  10 C :    0.016772
  11 O :   -0.092818
  12 C :   -0.055458
  13 C :    0.020779
  14 H :    0.021678
  15 H :    0.055142
  16 O :   -0.118422
  17 C :   -0.041490
  18 C :   -0.050520
  19 C :   -0.075078
  20 C :    0.030741
  21 O :    0.102369
  22 H :    0.035684
  23 H :    0.035123
  24 H :    0.034537
  25 H :    0.030381
  26 H :    0.032787
  27 H :    0.104849
  28 H :    0.094866
  29 H :    0.030126

-------------------------------
LOEWDIN REDUCED ORBITAL CHARGES
-------------------------------
  0 C s       :     2.852418  s :     2.852418
      pz      :     1.029981  p :     3.108350
      px      :     1.025800
      py      :     1.052569
      dz2     :     0.009282  d :     0.104447
      dxz     :     0.009647
      dyz     :     0.014800
      dx2y2   :     0.031208
      dxy     :     0.039511
  1 C s       :     2.824672  s :     2.824672
      pz      :     0.980779  p :     2.998626
      px      :     1.050853
      py      :     0.966994
      dz2     :     0.011833  d :     0.149249
      dxz     :     0.022328
      dyz     :     0.022832
      dx2y2   :     0.039431
      dxy     :     0.052825
  2 C s       :     2.859074  s :     2.859074
      pz      :     1.028863  p :     3.114941
      px      :     1.038412
      py      :     1.047667
      dz2     :     0.006203  d :     0.086049
      dxz     :     0.011376
      dyz     :     0.008060
      dx2y2   :     0.030655
      dxy     :     0.029754
  3 C s       :     2.864832  s :     2.864832
      pz      :     0.964304  p :     3.056244
      px      :     1.039880
      py      :     1.052059
      dz2     :     0.007297  d :     0.087884
      dxz     :     0.005326
      dyz     :     0.015726
      dx2y2   :     0.032221
      dxy     :     0.027315
  4 C s       :     2.869374  s :     2.869374
      pz      :     1.014898  p :     3.104841
      px      :     1.042055
      py      :     1.047889
      dz2     :     0.006851  d :     0.084815
      dxz     :     0.012796
      dyz     :     0.006594
      dx2y2   :     0.031185
      dxy     :     0.027390
  5 C s       :     2.911154  s :     2.911154
      pz      :     1.026561  p :     3.072731
      px      :     1.055532
      py      :     0.990638
      dz2     :     0.009143  d :     0.118535
      dxz     :     0.016465
      dyz     :     0.016202
      dx2y2   :     0.037975
      dxy     :     0.038750
  6 Cls       :     5.767217  s :     5.767217
      pz      :     3.839414  p :    11.053048
      px      :     3.721397
      py      :     3.492237
      dz2     :     0.005478  d :     0.040055
      dxz     :     0.004559
      dyz     :     0.008227
      dx2y2   :     0.006978
      dxy     :     0.014813
  7 N s       :     3.048010  s :     3.048010
      pz      :     1.509674  p :     3.848376
      px      :     1.182116
      py      :     1.156585
      dz2     :     0.004721  d :     0.056809
      dxz     :     0.007893
      dyz     :     0.004861
      dx2y2   :     0.019372
      dxy     :     0.019961
  8 C s       :     2.843865  s :     2.843865
      pz      :     0.864703  p :     2.868559
      px      :     0.967836
      py      :     1.036019
      dz2     :     0.016210  d :     0.263944
      dxz     :     0.047550
      dyz     :     0.019327
      dx2y2   :     0.119013
      dxy     :     0.061843
  9 O s       :     3.553691  s :     3.553691
      pz      :     1.384674  p :     4.569438
      px      :     1.583561
      py      :     1.601204
      dz2     :     0.004267  d :     0.030800
      dxz     :     0.004105
      dyz     :     0.003144
      dx2y2   :     0.006381
      dxy     :     0.012903
 10 C s       :     2.847927  s :     2.847927
      pz      :     0.907989  p :     2.957919
      px      :     1.002280
      py      :     1.047650
      dz2     :     0.049191  d :     0.177382
      dxz     :     0.037754
      dyz     :     0.035449
      dx2y2   :     0.036106
      dxy     :     0.018882
 11 O s       :     3.460380  s :     3.460380
      pz      :     1.456889  p :     4.608027
      px      :     1.436552
      py      :     1.714586
      dz2     :     0.009811  d :     0.024411
      dxz     :     0.003639
      dyz     :     0.003327
      dx2y2   :     0.001831
      dxy     :     0.005803
 12 C s       :     2.859910  s :     2.859910
      pz      :     1.043433  p :     3.115940
      px      :     1.020037
      py      :     1.052471
      dz2     :     0.018207  d :     0.079607
      dxz     :     0.015759
      dyz     :     0.009128
      dx2y2   :     0.025535
      dxy     :     0.010979
 13 C s       :     2.881916  s :     2.881916
      pz      :     0.850486  p :     2.881716
      px      :     1.029792
      py      :     1.001437
      dz2     :     0.015112  d :     0.215589
      dxz     :     0.016551
      dyz     :     0.034240
      dx2y2   :     0.060388
      dxy     :     0.089299
 14 H s       :     0.905633  s :     0.905633
      pz      :     0.014650  p :     0.072690
[...]
      dxz     :     0.014174
      dyz     :     0.005866
      dx2y2   :     0.017088
      dxy     :     0.015813
 18 C s       :     3.254815  s :     3.254815
      pz      :     0.968350  p :     2.759049
      px      :     0.827244
      py      :     0.963455
      dz2     :     0.006141  d :     0.031331
      dxz     :     0.005836
      dyz     :     0.004571
      dx2y2   :     0.008250
      dxy     :     0.006534
 19 C s       :     3.197492  s :     3.197492
      pz      :     0.951961  p :     2.800335
      px      :     0.914068
      py      :     0.934306
      dz2     :     0.004187  d :     0.030934
      dxz     :     0.008017
      dyz     :     0.004363
      dx2y2   :     0.006171
      dxy     :     0.008197
 20 C s       :     3.177681  s :     3.177681
      pz      :     0.916307  p :     2.636189
      px      :     0.811437
      py      :     0.908445
      dz2     :     0.011971  d :     0.060786
      dxz     :     0.012604
      dyz     :     0.009030
      dx2y2   :     0.013453
      dxy     :     0.013727
 21 O s       :     3.743309  s :     3.743309
      pz      :     1.569145  p :     4.386360
      px      :     1.234184
      py      :     1.583030
      dz2     :     0.003345  d :     0.020180
      dxz     :     0.004591
      dyz     :     0.003426
      dx2y2   :     0.003487
      dxy     :     0.005331
 22 H s       :     0.960785  s :     0.960785
      pz      :     0.004869  p :     0.021881
      px      :     0.013429
      py      :     0.003583
 23 H s       :     0.949873  s :     0.949873
      pz      :     0.005830  p :     0.023117
      px      :     0.010988
      py      :     0.006299
 24 H s       :     0.954511  s :     0.954511
      pz      :     0.008791  p :     0.022402
      px      :     0.004746
      py      :     0.008865
 25 H s       :     0.937934  s :     0.937934
      pz      :     0.003982  p :     0.021791
      px      :     0.013675
      py      :     0.004135
 26 H s       :     0.977531  s :     0.977531
      pz      :     0.005184  p :     0.022167
      px      :     0.006439
      py      :     0.010544
 27 H s       :     0.822763  s :     0.822763
      pz      :     0.011072  p :     0.041241
      px      :     0.006464
      py      :     0.023706
 28 H s       :     0.750900  s :     0.750900
      pz      :     0.015097  p :     0.066996
      px      :     0.030375
      py      :     0.021524
 29 H s       :     0.989027  s :     0.989027
      pz      :     0.005471  p :     0.022022
      px      :     0.005347
      py      :     0.011204


                     *******************************
                     * LOEWDIN POPULATION ANALYSIS *
                     *******************************

----------------------
LOEWDIN ATOMIC CHARGES
----------------------
   0 C :   -0.064216
   1 C :    0.032368
   2 C :   -0.064298
   3 C :   -0.011820
   4 C :   -0.060271
   5 C :   -0.107193
   6 Cl:    0.139212
   7 N :    0.035023
   8 C :    0.050558
   9 O :   -0.153266
  10 C :    0.012738
  11 O :   -0.084434
  12 C :   -0.057425
  13 C :    0.032995
  14 H :    0.036308
  15 H :    0.048294
  16 O :   -0.132526
  17 C :   -0.025682
  18 C :   -0.047764
  19 C :   -0.080160
  20 C :    0.049817
  21 O :    0.047607
  22 H :    0.040206
  23 H :    0.039285
  24 H :    0.040365
  25 H :    0.033603
  26 H :    0.038982
  27 H :    0.096651
  28 H :    0.078621
  29 H :    0.036424

-------------------------------
LOEWDIN REDUCED ORBITAL CHARGES
-------------------------------
  0 C s       :     2.860138  s :     2.860138
      pz      :     1.023842  p :     3.103148
      px      :     1.025628
      py      :     1.053678
      dz2     :     0.008081  d :     0.100930
      dxz     :     0.009147
      dyz     :     0.013192
      dx2y2   :     0.033301
      dxy     :     0.037208
  1 C s       :     2.836690  s :     2.836690
      pz      :     0.982838  p :     2.990507
      px      :     1.024680
      py      :     0.982990
      dz2     :     0.009707  d :     0.140435
      dxz     :     0.022499
      dyz     :     0.019191
      dx2y2   :     0.034974
      dxy     :     0.054065
  2 C s       :     2.866254  s :     2.866254
      pz      :     1.032084  p :     3.114061
      px      :     1.038257
      py      :     1.043719
      dz2     :     0.006066  d :     0.083983
      dxz     :     0.011229
      dyz     :     0.005689
      dx2y2   :     0.032698
      dxy     :     0.028301
  3 C s       :     2.869995  s :     2.869995
      pz      :     0.959503  p :     3.054974
      px      :     1.038523
      py      :     1.056948
      dz2     :     0.005904  d :     0.086851
      dxz     :     0.003879
      dyz     :     0.015810
      dx2y2   :     0.033132
      dxy     :     0.028127
  4 C s       :     2.874081  s :     2.874081
      pz      :     1.011835  p :     3.102137
      px      :     1.037903
      py      :     1.052399
      dz2     :     0.006418  d :     0.084053
      dxz     :     0.010364
      dyz     :     0.006778
      dx2y2   :     0.031457
      dxy     :     0.029036
  5 C s       :     2.910708  s :     2.910708
      pz      :     1.032538  p :     3.075890
      px      :     1.079812
      py      :     0.963539
      dz2     :     0.008061  d :     0.120595
      dxz     :     0.015361
      dyz     :     0.015523
      dx2y2   :     0.040431
      dxy     :     0.041219
  6 Cls       :     5.765034  s :     5.765034
      pz      :     3.880905  p :    11.055067
      px      :     3.794524
      py      :     3.379638
      dz2     :     0.005795  d :     0.040687
      dxz     :     0.002132
      dyz     :     0.008439
      dx2y2   :     0.010860
      dxy     :     0.013462
  7 N s       :     3.060675  s :     3.060675
      pz      :     1.530079  p :     3.849918
      px      :     1.172974
      py      :     1.146864
      dz2     :     0.004726  d :     0.054384
      dxz     :     0.007082
      dyz     :     0.003185
      dx2y2   :     0.019503
      dxy     :     0.019887
  8 C s       :     2.856417  s :     2.856417
      pz      :     0.847342  p :     2.840204
      px      :     0.967911
      py      :     1.024951
      dz2     :     0.017302  d :     0.252821
      dxz     :     0.048681
      dyz     :     0.014046
      dx2y2   :     0.102865
      dxy     :     0.069927
  9 O s       :     3.553070  s :     3.553070
      pz      :     1.394219  p :     4.569267
      px      :     1.512183
      py      :     1.662865
      dz2     :     0.004157  d :     0.030929
      dxz     :     0.005746
      dyz     :     0.002166
      dx2y2   :     0.007624
      dxy     :     0.011237
 10 C s       :     2.860764  s :     2.860764
      pz      :     0.936574  p :     2.955276
      px      :     0.995388
      py      :     1.023313
      dz2     :     0.050624  d :     0.171222
      dxz     :     0.034865
      dyz     :     0.028331
      dx2y2   :     0.041910
      dxy     :     0.015493
 11 O s       :     3.458990  s :     3.458990
      pz      :     1.525502  p :     4.601098
      px      :     1.408742
      py      :     1.666853
      dz2     :     0.007013  d :     0.024346
      dxz     :     0.003335
      dyz     :     0.004568
      dx2y2   :     0.002212
      dxy     :     0.007218
 12 C s       :     2.870291  s :     2.870291
      pz      :     1.025586  p :     3.109972
      px      :     1.027655
      py      :     1.056731
      dz2     :     0.016644  d :     0.077161
      dxz     :     0.018874
      dyz     :     0.009546
      dx2y2   :     0.022361
      dxy     :     0.009736
 13 C s       :     2.878763  s :     2.878763
      pz      :     0.924037  p :     2.874981
      px      :     1.031604
      py      :     0.919340
      dz2     :     0.035814  d :     0.213260
      dxz     :     0.053198
      dyz     :     0.035249
      dx2y2   :     0.033830
      dxy     :     0.055169
 14 H s       :     0.893376  s :     0.893376
      pz      :     0.013144  p :     0.070317
      px      :     0.013886
      py      :     0.043286
 15 H s       :     0.884556  s :     0.884556
      pz      :     0.030908  p :     0.067150
      px      :     0.021072
      py      :     0.015170
 16 O s       :     3.559418  s :     3.559418
      pz      :     1.391860  p :     4.543252
      px      :     1.773312
      py      :     1.378080
      dz2     :     0.005805  d :     0.029857
      dxz     :     0.003781
      dyz     :     0.011733
      dx2y2   :     0.004721
      dxy     :     0.003818
 17 C s       :     2.881737  s :     2.881737
      pz      :     1.064892  p :     2.993690
      px      :     0.876819
      py      :     1.051979
      dz2     :     0.022710  d :     0.150255
      dxz     :     0.032537
      dyz     :     0.017000
      dx2y2   :     0.041135
      dxy     :     0.036873
 18 C s       :     2.882528  s :     2.882528
      pz      :     1.013138  p :     3.079815
      px      :     1.042580
      py      :     1.024096
      dz2     :     0.014655  d :     0.085422
      dxz     :     0.015529
      dyz     :     0.014005
      dx2y2   :     0.023787
      dxy     :     0.017446
 19 C s       :     2.878568  s :     2.878568
      pz      :     1.037713  p :     3.116015
      px      :     1.038444
      py      :     1.039858
      dz2     :     0.009238  d :     0.085577
      dxz     :     0.021900
      dyz     :     0.012325
      dx2y2   :     0.019162
      dxy     :     0.022952
 20 C s       :     2.887245  s :     2.887245
      pz      :     0.966746  p :     2.924468
      px      :     0.980592
      py      :     0.977130
      dz2     :     0.025088  d :     0.138471
      dxz     :     0.028924
      dyz     :     0.022324
      dx2y2   :     0.029690
      dxy     :     0.032444
 21 O s       :     3.441971  s :     3.441971
      pz      :     1.580431  p :     4.472646
      px      :     1.294265
      py      :     1.597950
      dz2     :     0.005139  d :     0.037776
      dxz     :     0.009493
      dyz     :     0.005095
      dx2y2   :     0.007119
      dxy     :     0.010930
 22 H s       :     0.893978  s :     0.893978
      pz      :     0.013719  p :     0.065816
      px      :     0.041423
      py      :     0.010674
 23 H s       :     0.888528  s :     0.888528
      pz      :     0.017382  p :     0.072187
      px      :     0.035011
      py      :     0.019793
 24 H s       :     0.891194  s :     0.891194
      pz      :     0.026583  p :     0.068441
      px      :     0.014950
      py      :     0.026908
 25 H s       :     0.896990  s :     0.896990
      pz      :     0.012402  p :     0.069406
      px      :     0.043871
      py      :     0.013133
 26 H s       :     0.893104  s :     0.893104
      pz      :     0.015165  p :     0.067914
      px      :     0.020115
      py      :     0.032634
 27 H s       :     0.783123  s :     0.783123
      pz      :     0.034443  p :     0.120226
      px      :     0.018577
      py      :     0.067207
 28 H s       :     0.743145  s :     0.743145
      pz      :     0.038448  p :     0.178234
      px      :     0.078811
      py      :     0.060975
 29 H s       :     0.895672  s :     0.895672
      pz      :     0.015949  p :     0.067905
      px      :     0.016997
      py      :     0.034959


                      *****************************
                      * MAYER POPULATION ANALYSIS *
                      *****************************

  NA   - Mulliken gross atomic population
  ZA   - Total nuclear charge
  QA   - Mulliken gross atomic charge
  VA   - Mayer's total valence
  BVA  - Mayer's bonded valence
  FA   - Mayer's free valence

  ATOM       NA         ZA         QA         VA         BVA        FA
  0 C      5.9189     6.0000     0.0811     3.8943     3.8943    -0.0000
  1 C      5.9035     6.0000     0.0965     4.0138     4.0138    -0.0000
  2 C      6.0512     6.0000    -0.0512     3.7573     3.7573    -0.0000
  3 C      6.0060     6.0000    -0.0060     3.8117     3.8117    -0.0000
  4 C      5.9863     6.0000     0.0137     3.8545     3.8545    -0.0000
  5 C      6.0279     6.0000    -0.0279     3.9710     3.9710    -0.0000
  6 Cl    17.0608    17.0000    -0.0608     1.2245     1.2245    -0.0000
  7 N      7.0817     7.0000    -0.0817     3.2918     3.2918    -0.0000
  8 C      5.8578     6.0000     0.1422     4.2077     4.2077    -0.0000
  9 O      8.1657     8.0000    -0.1657     2.3706     2.3706    -0.0000
 10 C      6.1388     6.0000    -0.1388     4.0151     4.0151    -0.0000
 11 O      8.2263     8.0000    -0.2263     2.1937     2.1937    -0.0000
 12 C      5.8693     6.0000     0.1307     3.7449     3.7449    -0.0000
 13 C      5.9824     6.0000     0.0176     4.2705     4.2705    -0.0000
 14 H      0.9565     1.0000     0.0435     1.0157     1.0157    -0.0000
 15 H      0.9734     1.0000     0.0266     1.0154     1.0154    -0.0000
 16 O      8.1528     8.0000    -0.1528     2.3461     2.3461    -0.0000
 17 C      5.9572     6.0000     0.0428     3.7171     3.7171    -0.0000
 18 C      6.0452     6.0000    -0.0452     3.8256     3.8256    -0.0000
 19 C      6.0288     6.0000    -0.0288     3.7664     3.7664    -0.0000
 20 C      5.8747     6.0000     0.1253     3.8159     3.8159    -0.0000
 21 O      8.1498     8.0000    -0.1498     2.4662     2.4662    -0.0000
 22 H      0.9827     1.0000     0.0173     0.9806     0.9806    -0.0000
 23 H      0.9730     1.0000     0.0270     1.0282     1.0282    -0.0000
 24 H      0.9769     1.0000     0.0231     0.9903     0.9903     0.0000
 25 H      0.9597     1.0000     0.0403     0.9950     0.9950     0.0000
 26 H      0.9997     1.0000     0.0003     0.9994     0.9994     0.0000
 27 H      0.8640     1.0000     0.1360     1.0041     1.0041    -0.0000
 28 H      0.8179     1.0000     0.1821     1.0441     1.0441     0.0000
 29 H      1.0110     1.0000    -0.0110     0.9883     0.9883    -0.0000

  Mayer bond orders larger than 0.100000
B(  0-C ,  1-C ) :   1.3464 B(  0-C ,  5-C ) :   1.4709 B(  0-C , 10-C ) :   0.9342 
B(  1-C ,  2-C ) :   1.3554 B(  1-C ,  7-N ) :   1.0743 B(  2-C ,  3-C ) :   1.3228 
B(  2-C , 29-H ) :   0.9879 B(  3-C ,  4-C ) :   1.3783 B(  3-C , 22-H ) :   0.9649 
B(  4-C ,  5-C ) :   1.3350 B(  4-C , 26-H ) :   0.9789 B(  5-C ,  6-Cl) :   1.0323 
B(  7-N ,  8-C ) :   1.1493 B(  7-N , 27-H ) :   0.9124 B(  8-C ,  9-O ) :   2.1255 
B(  8-C , 10-C ) :   0.8409 B( 10-C , 11-O ) :   1.1408 B( 10-C , 12-C ) :   0.9650 
B( 11-O , 28-H ) :   0.9340 B( 12-C , 13-C ) :   1.0226 B( 12-C , 14-H ) :   0.8914 
B( 12-C , 15-H ) :   0.8813 B( 13-C , 16-O ) :   2.1575 B( 13-C , 17-C ) :   0.9661 
B( 17-C , 18-C ) :   1.4629 B( 17-C , 20-C ) :   0.1067 B( 17-C , 21-O ) :   1.1453 
B( 18-C , 19-C ) :   1.2460 B( 18-C , 23-H ) :   0.9786 B( 19-C , 20-C ) :   1.4718 
B( 19-C , 24-H ) :   0.9890 B( 20-C , 21-O ) :   1.1895 B( 20-C , 25-H ) :   0.9905 


-------
TIMINGS
-------

Total SCF time: 0 days 0 hours 0 min 14 sec 

Total time                  ....      14.500 sec
Sum of individual times     ....      14.202 sec  ( 97.9%)

Fock matrix formation       ....      12.863 sec  ( 88.7%)
  Split-RI-J                ....       5.040 sec  ( 39.2% of F)
  XC integration            ....       7.784 sec  ( 60.5% of F)
    Basis function eval.    ....       3.104 sec  ( 39.9% of XC)
    Density eval.           ....       1.885 sec  ( 24.2% of XC)
    XC-Functional eval.     ....       0.347 sec  (  4.5% of XC)
    XC-Potential eval.      ....       1.987 sec  ( 25.5% of XC)
Diagonalization             ....       0.009 sec  (  0.1%)
Density matrix formation    ....       0.014 sec  (  0.1%)
Population analysis         ....       0.032 sec  (  0.2%)
Initial guess               ....       0.012 sec  (  0.1%)
Orbital Transformation      ....       0.000 sec  (  0.0%)
Orbital Orthonormalization  ....       0.007 sec  (  0.0%)
DIIS solution               ....       0.001 sec  (  0.0%)
SOSCF solution              ....       0.041 sec  (  0.3%)
Grid generation             ....       1.231 sec  (  8.5%)

Maximum memory used throughout the entire SCF-calculation: 113.2 MB


-------------------------------------------------------------------------------
                          DFT DISPERSION CORRECTION                            
                                                                               
                              DFTD3 V3.1  Rev 1                                
                          USING Becke-Johnson damping                          
-------------------------------------------------------------------------------
The BP86 functional is recognized
Active option DFTDOPT                   ...         4   

molecular C6(AA) [au] = 12632.677603 


            DFT-D V3
 parameters
 s6 scaling factor         :     1.0000 
 a1 scaling factor         :     0.3946 
 s8 scaling factor         :     3.2822 
 a2 scaling factor         :     4.8516 
 ad hoc parameters k1-k3   :    16.0000     1.3333    -4.0000 

 Edisp/kcal,au: -42.646588231380  -0.067961657066 
 E6   /kcal   : -15.754477725 
 E8   /kcal   : -26.892110507 
 % E8         :  63.058058386 

-------------------------   ----------------
Dispersion correction           -0.067961657
-------------------------   ----------------


-------------------------   --------------------
FINAL SINGLE POINT ENERGY     -1354.697152471209
-------------------------   --------------------

                                *** OPTIMIZATION RUN DONE ***

                            ***************************************
                            *     ORCA property calculations      *
                            ***************************************

                                    ---------------------
                                    Active property flags
                                    ---------------------
   (+) Dipole Moment


------------------------------------------------------------------------------
                       ORCA ELECTRIC PROPERTIES CALCULATION
------------------------------------------------------------------------------

Dipole Moment Calculation                       ... on
Quadrupole Moment Calculation                   ... off
Polarizability Calculation                      ... off
GBWName                                         ... input.gbw
Electron density                                ... input.scfp
The origin for moment calculation is the CENTER OF MASS  = ( 3.658570,  3.197114  0.056683)

-------------
DIPOLE MOMENT
-------------
                                X             Y             Z
Electronic contribution:     -1.26938       2.94232       0.26062
Nuclear contribution   :      0.27226      -2.66738       0.32554
                        -----------------------------------------
Total Dipole Moment    :     -0.99712       0.27494       0.58616
                        -----------------------------------------
Magnitude (a.u.)       :      1.18888
Magnitude (Debye)      :      3.02189



--------------------
Rotational spectrum 
--------------------
 
Rotational constants in cm-1:     0.020158     0.007166     0.005890 
Rotational constants in MHz :   604.334574   214.831799   176.565461 

 Dipole components along the rotational axes: 
x,y,z [a.u.] :     1.027178     0.420538     0.426008 
x,y,z [Debye]:     2.610878     1.068923     1.082825 

 

Timings for individual modules:

Sum of individual times         ...      505.545 sec (=   8.426 min)
GTO integral calculation        ...        3.137 sec (=   0.052 min)   0.6 %
SCF iterations                  ...      341.434 sec (=   5.691 min)  67.5 %
SCF Gradient evaluation         ...      159.578 sec (=   2.660 min)  31.6 %
Geometry relaxation             ...        1.396 sec (=   0.023 min)   0.3 %
                             ****ORCA TERMINATED NORMALLY****
TOTAL RUN TIME: 0 days 0 hours 8 minutes 27 seconds 854 msec
